mpijob CMD    : mpirun -f /tmp/mpiexec.params.k050801.196672
mpijob PARAMS : -d /home/k0508/k050801/qeirreps/ver_5/qeirreps/reference/PbPt3_nonsoc
        r1i5n19 10 omplace -nt 4 "/home/k0508/k050801/qe-6.6/bin/pw.x"

SGI MPT Placement option
--------------------------
omplace -nt 4

Node   MPI
------------
r1i5n19 10


     Program PWSCF v.6.6 starts on 29Nov2020 at 19:13:59 

     This program is part of the open-source Quantum ESPRESSO suite
     for quantum simulation of materials; please cite
         "P. Giannozzi et al., J. Phys.:Condens. Matter 21 395502 (2009);
         "P. Giannozzi et al., J. Phys.:Condens. Matter 29 465901 (2017);
          URL http://www.quantum-espresso.org", 
     in publications or presentations arising from this work. More details at
     http://www.quantum-espresso.org/quote

     Parallel version (MPI), running on    10 processors

     MPI processes distributed on     1 nodes
     R & G space division:  proc/nbgrp/npool/nimage =      10
     Fft bands division:     nmany     =       1
     Waiting for input...
     Reading input from standard input

     Current dimensions of program PWSCF are:
     Max number of different atomic species (ntypx) = 10
     Max number of k-points (npk) =  40000
     Max angular momentum in pseudopotentials (lmaxx) =  3

     Subspace diagonalization in iterative solution of the eigenvalue problem:
     a serial algorithm will be used

     Message from routine setup:
     using ibrav=0 with symmetry is DISCOURAGED, use correct ibrav instead
 
     Parallelization info
     --------------------
     sticks:   dense  smooth     PW     G-vecs:    dense   smooth      PW
     Min         194     194     55                 6422     6422     979
     Max         195     195     56                 6426     6426     982
     Sum        1941    1941    553                64229    64229    9795
 


     bravais-lattice index     =            0
     lattice parameter (alat)  =       7.8085  a.u.
     unit-cell volume          =     476.1138 (a.u.)^3
     number of atoms/cell      =            4
     number of atomic types    =            2
     number of electrons       =        68.00
     number of Kohn-Sham states=           41
     kinetic-energy cutoff     =     100.0000  Ry
     charge density cutoff     =     400.0000  Ry
     convergence threshold     =      1.0E-08
     mixing beta               =       0.3000
     number of iterations used =            8  plain     mixing
     Exchange-correlation= PBE
                           (   1   4   3   4   0   0   0)

     celldm(1)=   7.808548  celldm(2)=   0.000000  celldm(3)=   0.000000
     celldm(4)=   0.000000  celldm(5)=   0.000000  celldm(6)=   0.000000

     crystal axes: (cart. coord. in units of alat)
               a(1) = (   1.000000   0.000000   0.000000 )  
               a(2) = (   0.000000   1.000000   0.000000 )  
               a(3) = (   0.000000   0.000000   1.000000 )  

     reciprocal axes: (cart. coord. in units 2 pi/alat)
               b(1) = (  1.000000  0.000000  0.000000 )  
               b(2) = (  0.000000  1.000000  0.000000 )  
               b(3) = (  0.000000  0.000000  1.000000 )  


     PseudoPot. # 1 for Pt read from file:
     ../../pseudo/nonsoc/Pt.upf
     MD5 check sum: 3caa314b32314335c676ebce8d0bd64e
     Pseudo is Norm-conserving + core correction, Zval = 18.0
     Generated using ONCVPSP code by D. R. Hamann
     Using radial grid of 1374 points,  8 beta functions with: 
                l(1) =   0
                l(2) =   0
                l(3) =   1
                l(4) =   1
                l(5) =   2
                l(6) =   2
                l(7) =   3
                l(8) =   3

     PseudoPot. # 2 for Pb read from file:
     ../../pseudo/nonsoc/Pb.upf
     MD5 check sum: 465799cf2c9ea2062203eb79f5a7a375
     Pseudo is Norm-conserving + core correction, Zval = 14.0
     Generated using ONCVPSP code by D. R. Hamann
     Using radial grid of 1678 points,  6 beta functions with: 
                l(1) =   0
                l(2) =   0
                l(3) =   1
                l(4) =   1
                l(5) =   2
                l(6) =   2

     atomic species   valence    mass     pseudopotential
        Pt            18.00   195.08400     Pt( 1.00)
        Pb            14.00   207.20000     Pb( 1.00)

     48 Sym. Ops., with inversion, found



   Cartesian axes

     site n.     atom                  positions (alat units)
         1           Pt  tau(   1) = (   0.0000000   0.5000000   0.5000000  )
         2           Pt  tau(   2) = (   0.5000000   0.0000000   0.5000000  )
         3           Pt  tau(   3) = (   0.5000000   0.5000000   0.0000000  )
         4           Pb  tau(   4) = (   0.0000000   0.0000000   0.0000000  )

     number of k points=    35  Methfessel-Paxton smearing, width (Ry)=  0.0100
                       cart. coord. in units 2pi/alat
        k(    1) = (   0.0000000   0.0000000   0.0000000), wk =   0.0039062
        k(    2) = (   0.0000000   0.0000000   0.1250000), wk =   0.0234375
        k(    3) = (   0.0000000   0.0000000   0.2500000), wk =   0.0234375
        k(    4) = (   0.0000000   0.0000000   0.3750000), wk =   0.0234375
        k(    5) = (   0.0000000   0.0000000  -0.5000000), wk =   0.0117188
        k(    6) = (   0.0000000   0.1250000   0.1250000), wk =   0.0468750
        k(    7) = (   0.0000000   0.1250000   0.2500000), wk =   0.0937500
        k(    8) = (   0.0000000   0.1250000   0.3750000), wk =   0.0937500
        k(    9) = (   0.0000000   0.1250000  -0.5000000), wk =   0.0468750
        k(   10) = (   0.0000000   0.2500000   0.2500000), wk =   0.0468750
        k(   11) = (   0.0000000   0.2500000   0.3750000), wk =   0.0937500
        k(   12) = (   0.0000000   0.2500000  -0.5000000), wk =   0.0468750
        k(   13) = (   0.0000000   0.3750000   0.3750000), wk =   0.0468750
        k(   14) = (   0.0000000   0.3750000  -0.5000000), wk =   0.0468750
        k(   15) = (   0.0000000  -0.5000000  -0.5000000), wk =   0.0117188
        k(   16) = (   0.1250000   0.1250000   0.1250000), wk =   0.0312500
        k(   17) = (   0.1250000   0.1250000   0.2500000), wk =   0.0937500
        k(   18) = (   0.1250000   0.1250000   0.3750000), wk =   0.0937500
        k(   19) = (   0.1250000   0.1250000  -0.5000000), wk =   0.0468750
        k(   20) = (   0.1250000   0.2500000   0.2500000), wk =   0.0937500
        k(   21) = (   0.1250000   0.2500000   0.3750000), wk =   0.1875000
        k(   22) = (   0.1250000   0.2500000  -0.5000000), wk =   0.0937500
        k(   23) = (   0.1250000   0.3750000   0.3750000), wk =   0.0937500
        k(   24) = (   0.1250000   0.3750000  -0.5000000), wk =   0.0937500
        k(   25) = (   0.1250000  -0.5000000  -0.5000000), wk =   0.0234375
        k(   26) = (   0.2500000   0.2500000   0.2500000), wk =   0.0312500
        k(   27) = (   0.2500000   0.2500000   0.3750000), wk =   0.0937500
        k(   28) = (   0.2500000   0.2500000  -0.5000000), wk =   0.0468750
        k(   29) = (   0.2500000   0.3750000   0.3750000), wk =   0.0937500
        k(   30) = (   0.2500000   0.3750000  -0.5000000), wk =   0.0937500
        k(   31) = (   0.2500000  -0.5000000  -0.5000000), wk =   0.0234375
        k(   32) = (   0.3750000   0.3750000   0.3750000), wk =   0.0312500
        k(   33) = (   0.3750000   0.3750000  -0.5000000), wk =   0.0468750
        k(   34) = (   0.3750000  -0.5000000  -0.5000000), wk =   0.0234375
        k(   35) = (  -0.5000000  -0.5000000  -0.5000000), wk =   0.0039062

     Dense  grid:    64229 G-vectors     FFT dimensions: (  50,  50,  50)

     Estimated max dynamical RAM per process >      33.33 MB

     Estimated total dynamical RAM >     333.29 MB

     Initial potential from superposition of free atoms

     starting charge   67.99740, renormalised to   68.00000
     Starting wfcs are   39 randomized atomic wfcs +    2 random wfcs

     total cpu time spent up to now is        1.8 secs

     Self-consistent Calculation

     iteration #  1     ecut=   100.00 Ry     beta= 0.30
     Davidson diagonalization with overlap
     ethr =  1.00E-02,  avg # of iterations =  3.3

     Threshold (ethr) on eigenvalues was too large:
     Diagonalizing with lowered threshold

     Davidson diagonalization with overlap
     ethr =  2.35E-04,  avg # of iterations =  2.1

     total cpu time spent up to now is        6.1 secs

     total energy              =    -924.32473729 Ry
     estimated scf accuracy    <       0.16884182 Ry

     iteration #  2     ecut=   100.00 Ry     beta= 0.30
     Davidson diagonalization with overlap
     ethr =  2.48E-04,  avg # of iterations =  2.0

     total cpu time spent up to now is        8.2 secs

     total energy              =    -924.33516691 Ry
     estimated scf accuracy    <       0.02217724 Ry

     iteration #  3     ecut=   100.00 Ry     beta= 0.30
     Davidson diagonalization with overlap
     ethr =  3.26E-05,  avg # of iterations =  2.5

     total cpu time spent up to now is       10.2 secs

     total energy              =    -924.33585578 Ry
     estimated scf accuracy    <       0.00435762 Ry

     iteration #  4     ecut=   100.00 Ry     beta= 0.30
     Davidson diagonalization with overlap
     ethr =  6.41E-06,  avg # of iterations =  2.3

     total cpu time spent up to now is       12.2 secs

     total energy              =    -924.33610133 Ry
     estimated scf accuracy    <       0.00062726 Ry

     iteration #  5     ecut=   100.00 Ry     beta= 0.30
     Davidson diagonalization with overlap
     ethr =  9.22E-07,  avg # of iterations =  2.0

     total cpu time spent up to now is       14.2 secs

     total energy              =    -924.33613559 Ry
     estimated scf accuracy    <       0.00001009 Ry

     iteration #  6     ecut=   100.00 Ry     beta= 0.30
     Davidson diagonalization with overlap
     ethr =  1.48E-08,  avg # of iterations =  2.5

     total cpu time spent up to now is       16.6 secs

     total energy              =    -924.33613752 Ry
     estimated scf accuracy    <       0.00000202 Ry

     iteration #  7     ecut=   100.00 Ry     beta= 0.30
     Davidson diagonalization with overlap
     ethr =  2.96E-09,  avg # of iterations =  2.0

     total cpu time spent up to now is       18.9 secs

     total energy              =    -924.33613795 Ry
     estimated scf accuracy    <       0.00000031 Ry

     iteration #  8     ecut=   100.00 Ry     beta= 0.30
     Davidson diagonalization with overlap
     ethr =  4.63E-10,  avg # of iterations =  2.0

     total cpu time spent up to now is       21.0 secs

     total energy              =    -924.33613799 Ry
     estimated scf accuracy    <       0.00000002 Ry

     iteration #  9     ecut=   100.00 Ry     beta= 0.30
     Davidson diagonalization with overlap
     ethr =  2.74E-11,  avg # of iterations =  2.1

     total cpu time spent up to now is       23.2 secs

     End of self-consistent calculation

          k = 0.0000 0.0000 0.0000 (  8121 PWs)   bands (ev):

   -78.1241 -78.1090 -78.1090 -32.3751 -32.3751 -32.3751 -32.2825 -32.2825
   -32.2825 -32.1892 -32.1892 -32.1892   2.8431   2.8431   2.8888   2.8888
     2.8888   8.2334  13.7328  15.2605  15.2605  15.2605  15.2713  15.2713
    17.9117  17.9117  17.9117  19.0032  19.0032  19.2909  19.2909  19.2909
    19.6957  20.1681  20.1681  20.1681  21.2965  25.8328  25.8328  27.8443
    27.8443

          k = 0.0000 0.0000 0.1250 (  8085 PWs)   bands (ev):

   -78.1236 -78.1095 -78.1090 -32.3713 -32.3713 -32.3689 -32.2836 -32.2836
   -32.2828 -32.1960 -32.1920 -32.1920   2.8483   2.8566   2.8898   2.8931
     2.8931   8.3862  13.8189  15.1092  15.2889  15.3002  15.3002  15.3991
    17.5688  17.5688  17.8515  18.2673  18.9898  18.9929  19.1962  19.1962
    19.5550  20.1685  20.6439  20.6439  21.9027  25.7726  25.9016  27.8993
    27.8993

          k = 0.0000 0.0000 0.2500 (  8049 PWs)   bands (ev):

   -78.1222 -78.1109 -78.1090 -32.3611 -32.3611 -32.3514 -32.2868 -32.2868
   -32.2833 -32.2150 -32.1992 -32.1992   2.8608   2.8892   2.8924   2.9036
     2.9036   8.8239  13.8199  14.7095  15.3627  15.3847  15.3847  15.7646
    17.1148  17.1148  17.3715  17.7022  18.6191  18.7484  18.7484  18.8787
    19.2255  20.1695  21.7865  21.7865  21.7945  25.6191  26.9696  27.4632
    27.4632

          k = 0.0000 0.0000 0.3750 (  8041 PWs)   bands (ev):

   -78.1202 -78.1128 -78.1090 -32.3486 -32.3486 -32.3268 -32.2920 -32.2920
   -32.2839 -32.2411 -32.2067 -32.2067   2.8732   2.8950   2.9142   2.9142
     2.9219   9.4431  13.0088  14.8757  15.4308  15.4308  15.4456  16.2873
    16.9543  16.9543  17.0804  17.5455  18.1287  18.2119  18.2119  18.3958
    19.0943  20.1705  21.2514  23.1307  23.1307  25.4570  26.4108  26.4108
    27.7879

          k = 0.0000 0.0000-0.5000 (  8008 PWs)   bands (ev):

   -78.1190 -78.1140 -78.1090 -32.3421 -32.3421 -32.3101 -32.2954 -32.2954
   -32.2841 -32.2584 -32.2099 -32.2099   2.8784   2.8960   2.9186   2.9186
     2.9354   9.8290  12.4516  15.0758  15.4305  15.4305  15.4833  16.6334
    16.9923  16.9923  17.0400  17.4777  17.8608  17.9356  17.9356  18.0231
    19.0783  20.1709  21.0172  24.0617  24.0617  25.3886  25.5541  25.5541
    27.6110

          k = 0.0000 0.1250 0.1250 (  8069 PWs)   bands (ev):

   -78.1231 -78.1097 -78.1092 -32.3729 -32.3675 -32.3584 -32.2897 -32.2844
   -32.2776 -32.2074 -32.1951 -32.1894   2.8559   2.8658   2.8933   2.8948
     2.8965   8.5354  13.8977  15.1180  15.2292  15.2964  15.3727  15.4411
    17.2073  17.2366  17.9571  18.1858  18.7878  18.8340  19.0565  19.0923
    19.4146  19.9927  20.5896  21.1453  22.5784  25.7899  25.8417  27.5497
    28.0821

          k = 0.0000 0.1250 0.2500 (  8046 PWs)   bands (ev):

   -78.1217 -78.1110 -78.1093 -32.3662 -32.3571 -32.3406 -32.2975 -32.2873
   -32.2728 -32.2273 -32.2028 -32.1931   2.8675   2.8952   2.8961   2.9043
     2.9044   8.9608  13.8908  14.7750  15.2423  15.3232  15.6126  15.6569
    16.7904  17.0403  17.3613  17.9043  18.3665  18.6729  18.7347  18.9117
    19.1423  19.9055  20.9729  22.1869  22.6630  25.4274  26.5607  27.6436
    27.8127

          k = 0.0000 0.1250 0.3750 (  8053 PWs)   bands (ev):

   -78.1198 -78.1128 -78.1093 -32.3527 -32.3443 -32.3254 -32.3028 -32.2921
   -32.2686 -32.2498 -32.2109 -32.2003   2.8798   2.8984   2.9079   2.9145
     2.9284   9.5547  13.1300  14.9170  15.3134  15.3269  15.6322  16.1499
    16.7574  16.8234  17.2279  17.6733  17.8272  18.2008  18.3268  18.6307
    19.0168  19.8957  21.0019  22.9617  23.4491  24.7361  26.5872  26.7681
    28.3115

          k = 0.0000 0.1250-0.5000 (  8032 PWs)   bands (ev):

   -78.1187 -78.1140 -78.1093 -32.3413 -32.3376 -32.3281 -32.2968 -32.2954
   -32.2652 -32.2648 -32.2145 -32.2042   2.8858   2.8994   2.9093   2.9187
     2.9414   9.9161  12.6108  15.1822  15.2269  15.3843  15.5483  16.5620
    16.6123  16.9982  17.3295  17.3545  17.5636  18.0448  18.1066  18.3636
    19.0044  19.8958  20.8562  23.5760  24.1205  24.3160  25.9468  26.5486
    28.1913

          k = 0.0000 0.2500 0.2500 (  8040 PWs)   bands (ev):

   -78.1205 -78.1115 -78.1101 -32.3669 -32.3463 -32.3242 -32.3108 -32.2890
   -32.2600 -32.2476 -32.2121 -32.1895   2.8763   2.9040   2.9041   2.9071
     2.9195   9.3452  13.9504  14.7038  15.2034  15.2261  15.6375  15.9439
    16.3349  16.8888  17.2099  18.0748  18.2161  18.3797  18.6016  18.7516
    18.9090  19.5136  20.8480  22.3841  23.1097  25.2432  26.4926  27.9070
    28.5303

          k = 0.0000 0.2500 0.3750 (  8038 PWs)   bands (ev):

   -78.1187 -78.1129 -78.1104 -32.3601 -32.3325 -32.3273 -32.3069 -32.2925
   -32.2674 -32.2475 -32.2226 -32.1915   2.8830   2.9021   2.9068   2.9151
     2.9476   9.8612  13.4468  14.6457  15.2322  15.4041  15.8709  15.9425
    16.4834  16.5134  17.4873  17.7620  17.7949  18.1773  18.2676  18.6989
    18.8068  19.3294  20.8300  21.9469  24.2564  24.5980  26.8003  27.6739
    28.4079

          k = 0.0000 0.2500-0.5000 (  8060 PWs)   bands (ev):

   -78.1176 -78.1140 -78.1104 -32.3513 -32.3388 -32.3248 -32.2969 -32.2954
   -32.2788 -32.2417 -32.2274 -32.1939   2.8869   2.8997   2.9075   2.9189
     2.9596  10.1551  13.0466  14.7107  15.2681  15.4732  15.7242  16.2578
    16.3527  17.0186  17.1949  17.5141  17.5209  18.1474  18.1777  18.6720
    18.7746  19.2875  20.7076  21.9332  24.2777  25.0250  26.8444  26.8954
    28.8213

          k = 0.0000 0.3750 0.3750 (  8022 PWs)   bands (ev):

   -78.1171 -78.1133 -78.1116 -32.3655 -32.3327 -32.3168 -32.3027 -32.2936
   -32.2820 -32.2373 -32.2321 -32.1869   2.8709   2.9070   2.9147   2.9162
     2.9716  10.2504  13.7194  14.1490  15.1729  15.7190  15.9411  15.9595
    16.1992  16.6345  17.5501  17.6903  17.7543  18.0624  18.2049  18.3487
    18.7486  18.8621  20.8949  21.1539  24.5890  25.3098  27.1172  27.7289
    28.7519

          k = 0.0000 0.3750-0.5000 (  8034 PWs)   bands (ev):

   -78.1159 -78.1140 -78.1121 -32.3674 -32.3352 -32.3071 -32.2968 -32.2954
   -32.2913 -32.2452 -32.2258 -32.1859   2.8650   2.9092   2.9157   2.9190
     2.9823  10.4542  13.5938  14.1387  15.1476  15.8420  15.9386  16.0629
    16.1402  17.0586  17.1122  17.6239  17.6297  17.9371  18.2414  18.3049
    18.6953  18.6982  20.8067  21.0787  24.5344  26.0192  27.1015  27.8285
    27.9956

          k = 0.0000-0.5000-0.5000 (  8020 PWs)   bands (ev):

   -78.1140 -78.1140 -78.1140 -32.3731 -32.3330 -32.2968 -32.2968 -32.2954
   -32.2954 -32.2570 -32.2203 -32.1830   2.8560   2.9122   2.9191   2.9191
     2.9926  10.6064  13.8747  13.8747  15.0972  16.0163  16.0439  16.0564
    16.0564  17.0905  17.0905  17.6393  17.7077  17.7077  18.0311  18.2569
    18.4330  18.6533  20.8939  20.8939  24.7137  26.7174  27.2921  27.2921
    28.6180

          k = 0.1250 0.1250 0.1250 (  8079 PWs)   bands (ev):

   -78.1226 -78.1097 -78.1097 -32.3767 -32.3553 -32.3553 -32.2896 -32.2896
   -32.2734 -32.2196 -32.1918 -32.1918   2.8676   2.8676   2.8975   2.8979
     2.8979   8.6806  13.9545  15.1313  15.2330  15.2330  15.4754  15.4754
    16.6833  17.5672  17.5672  18.4474  18.4474  18.8080  18.8080  19.0548
    19.1757  19.9993  20.8958  20.8958  23.4222  25.6938  25.6938  27.1321
    28.4727

          k = 0.1250 0.1250 0.2500 (  8046 PWs)   bands (ev):

   -78.1213 -78.1110 -78.1097 -32.3730 -32.3468 -32.3379 -32.2984 -32.2887
   -32.2678 -32.2409 -32.1979 -32.1939   2.8749   2.8903   2.9015   2.9060
     2.9096   9.0921  13.9039  14.8474  15.1293  15.5182  15.5905  15.6383
    16.4943  17.1801  17.2529  17.9895  18.3477  18.3683  18.7549  18.9129
    18.9478  19.8896  21.0046  21.6346  23.5608  25.1350  26.5933  26.9754
    27.9212

          k = 0.1250 0.1250 0.3750 (  8043 PWs)   bands (ev):

   -78.1195 -78.1128 -78.1097 -32.3612 -32.3347 -32.3287 -32.3090 -32.2837
   -32.2631 -32.2606 -32.2047 -32.2017   2.8865   2.8981   2.9071   2.9097
     2.9347   9.6574  13.2287  14.8215  15.2290  15.5838  15.6448  16.0484
    16.6294  16.9281  16.9583  17.7999  17.9114  18.0327  18.4892  18.6645
    18.8829  19.7710  20.9765  22.5017  23.6902  24.3464  26.1121  28.0053
    28.5768

          k = 0.1250 0.1250-0.5000 (  8024 PWs)   bands (ev):

   -78.1183 -78.1140 -78.1097 -32.3510 -32.3318 -32.3225 -32.3203 -32.2750
   -32.2719 -32.2611 -32.2078 -32.2067   2.8938   2.8996   2.9087   2.9096
     2.9467   9.9918  12.7630  14.8938  15.2642  15.5911  15.6523  16.5411
    16.5760  16.6671  16.9888  17.6815  17.7781  18.0882  18.1389  18.4531
    18.8884  19.7308  20.8477  23.1051  23.7822  24.0876  25.6196  28.4538
    28.6061

          k = 0.1250 0.2500 0.2500 (  8057 PWs)   bands (ev):

   -78.1201 -78.1115 -78.1104 -32.3747 -32.3402 -32.3290 -32.3022 -32.2852
   -32.2638 -32.2579 -32.2031 -32.1908   2.8815   2.8958   2.9026   2.9116
     2.9264   9.4569  13.8323  14.8169  15.2156  15.4070  15.6291  15.9500
    16.2833  16.8623  17.1376  18.0854  18.2064  18.2700  18.4371  18.5830
    18.9468  19.7439  20.8953  21.8858  23.2244  25.6949  25.8172  26.8927
    29.0794

          k = 0.1250 0.2500 0.3750 (  8033 PWs)   bands (ev):

   -78.1184 -78.1129 -78.1107 -32.3675 -32.3415 -32.3254 -32.3046 -32.2856
   -32.2727 -32.2471 -32.2116 -32.1926   2.8846   2.9010   2.9040   2.9134
     2.9507   9.9333  13.4682  14.5568  15.4285  15.5434  15.8066  16.0137
    16.4662  16.5330  17.0425  17.8881  18.0403  18.0735  18.2815  18.5722
    18.7941  19.5308  20.8617  22.1288  22.7318  24.8956  26.8230  27.1069
    29.2943

          k = 0.1250 0.2500-0.5000 (  8036 PWs)   bands (ev):

   -78.1173 -78.1140 -78.1107 -32.3557 -32.3514 -32.3249 -32.3049 -32.2920
   -32.2675 -32.2415 -32.2163 -32.1950   2.8864   2.9016   2.9089   2.9099
     2.9618  10.1935  13.1790  14.4805  15.4803  15.6009  15.9134  16.1852
    16.3760  16.7231  16.8120  17.8284  17.8483  18.0882  18.2556  18.5743
    18.6502  19.4497  20.7833  22.1076  22.7723  24.6149  26.7680  27.9856
    29.2626

          k = 0.1250 0.3750 0.3750 (  8035 PWs)   bands (ev):

   -78.1169 -78.1133 -78.1118 -32.3683 -32.3506 -32.3244 -32.3101 -32.2828
   -32.2716 -32.2320 -32.2227 -32.1873   2.8703   2.9054   2.9058   2.9187
     2.9713  10.2667  13.6718  14.2706  15.4071  15.6193  15.8137  16.1869
    16.3512  16.6002  17.0300  17.7169  17.9380  18.0594  18.2254  18.4929
    18.7549  19.1686  20.8221  21.2778  22.8912  25.8500  25.9274  27.3699
    28.9252

          k = 0.1250 0.3750-0.5000 (  8050 PWs)   bands (ev):

   -78.1158 -78.1140 -78.1122 -32.3674 -32.3539 -32.3253 -32.3159 -32.2793
   -32.2671 -32.2296 -32.2258 -32.1861   2.8640   2.9059   2.9086   2.9194
     2.9810  10.4308  13.7087  14.1396  15.4129  15.5739  15.9264  16.1594
    16.4488  16.8417  16.8854  17.5642  17.8958  18.0363  18.2743  18.3384
    18.6881  19.0397  20.7695  21.0394  23.1073  25.3844  26.5150  27.6704
    28.1883

          k = 0.1250-0.5000-0.5000 (  8032 PWs)   bands (ev):

   -78.1140 -78.1140 -78.1140 -32.3730 -32.3504 -32.3253 -32.3253 -32.2670
   -32.2670 -32.2395 -32.2202 -32.1830   2.8548   2.9085   2.9085   2.9214
     2.9901  10.5437  13.9967  13.9967  15.3081  15.4328  16.0757  16.0757
    16.7103  16.9363  16.9363  17.3653  17.9448  17.9448  18.1678  18.2685
    18.6514  18.7556  20.7941  20.7941  23.4400  25.8371  25.8371  27.5627
    28.1520

          k = 0.2500 0.2500 0.2500 (  8024 PWs)   bands (ev):

   -78.1190 -78.1115 -78.1115 -32.3811 -32.3377 -32.3377 -32.2919 -32.2797
   -32.2797 -32.2514 -32.1945 -32.1945   2.8870   2.8870   2.8973   2.9317
     2.9317   9.7556  13.6312  15.1248  15.1248  15.4140  15.9751  15.9751
    16.3009  16.7758  16.7758  17.9691  18.1459  18.1459  18.3849  18.3849
    19.0105  19.8847  21.0873  21.0873  23.6750  24.5989  24.5989  28.4024
    29.4143

          k = 0.2500 0.2500 0.3750 (  8039 PWs)   bands (ev):

   -78.1176 -78.1130 -78.1115 -32.3781 -32.3446 -32.3437 -32.3133 -32.2767
   -32.2565 -32.2431 -32.1993 -32.1941   2.8841   2.8872   2.8934   2.9310
     2.9562  10.1117  13.5251  14.5915  15.5201  15.6076  16.0132  16.1379
    16.5159  16.6001  16.6194  17.6604  18.0552  18.2500  18.2843  18.4720
    18.9048  19.7288  20.8686  21.3604  22.5459  23.6749  25.5293  28.4338
    29.0629

          k = 0.2500 0.2500-0.5000 (  8036 PWs)   bands (ev):

   -78.1165 -78.1140 -78.1115 -32.3710 -32.3538 -32.3471 -32.3193 -32.2759
   -32.2455 -32.2390 -32.2019 -32.1964   2.8843   2.8860   2.8926   2.9294
     2.9668  10.2842  13.5343  14.2738  15.6374  15.7554  16.0161  16.3562
    16.3804  16.5046  16.6809  17.5606  17.9926  18.3375  18.4845  18.5027
    18.6068  19.5872  20.9573  21.4914  21.9589  23.3417  26.2916  27.8078
    28.8821

          k = 0.2500 0.3750 0.3750 (  8029 PWs)   bands (ev):

   -78.1163 -78.1133 -78.1124 -32.3809 -32.3589 -32.3461 -32.3351 -32.2570
   -32.2491 -32.2317 -32.2028 -32.1885   2.8686   2.8850   2.8870   2.9412
     2.9687  10.2946  13.7049  14.5699  15.2624  15.8594  16.0337  16.1917
    16.6014  16.6540  16.9061  17.3082  18.0849  18.1331  18.3575  18.5940
    18.9715  19.6018  20.5670  21.1619  21.6558  24.2201  24.4089  27.2049
    29.7298

          k = 0.2500 0.3750-0.5000 (  8034 PWs)   bands (ev):

   -78.1154 -78.1140 -78.1126 -32.3778 -32.3672 -32.3500 -32.3409 -32.2532
   -32.2425 -32.2257 -32.2064 -32.1868   2.8617   2.8839   2.8857   2.9417
     2.9771  10.3708  13.9911  14.2490  15.2702  15.9702  15.9821  16.2309
    16.6655  16.6840  17.0901  17.1740  18.1070  18.1315  18.4417  18.6505
    18.7849  19.4854  20.6103  20.8091  21.5158  23.8467  24.9619  26.4074
    29.9377

          k = 0.2500-0.5000-0.5000 (  8024 PWs)   bands (ev):

   -78.1140 -78.1140 -78.1140 -32.3786 -32.3729 -32.3502 -32.3502 -32.2423
   -32.2423 -32.2202 -32.2113 -32.1829   2.8521   2.8833   2.8833   2.9437
     2.9840  10.4051  14.2839  14.2839  14.9779  15.8773  16.1893  16.1893
    16.7939  16.7939  16.9860  17.3466  18.2628  18.2628  18.2965  18.5910
    18.6310  19.2546  20.4500  20.4500  21.7581  24.3745  24.3745  25.6504
    30.2518

          k = 0.3750 0.3750 0.3750 (  8045 PWs)   bands (ev):

   -78.1155 -78.1133 -78.1133 -32.3912 -32.3607 -32.3607 -32.3574 -32.2352
   -32.2352 -32.2293 -32.1904 -32.1904   2.8663   2.8663   2.8684   2.9645
     2.9645  10.3068  13.9518  14.8469  14.8469  16.0505  16.3422  16.3422
    16.6819  16.6819  16.9943  17.5037  18.0779  18.0779  18.5448  18.5448
    19.1851  19.8082  20.2296  20.2296  21.3477  23.5776  23.5776  25.7514
    31.9481

          k = 0.3750 0.3750-0.5000 (  8012 PWs)   bands (ev):

   -78.1147 -78.1140 -78.1133 -32.3938 -32.3678 -32.3658 -32.3598 -32.2334
   -32.2269 -32.2250 -32.1916 -32.1866   2.8590   2.8598   2.8663   2.9625
     2.9743  10.3077  14.3015  14.4375  14.9400  16.2706  16.3506  16.4799
    16.7032  16.7732  16.8685  17.7461  18.0240  18.1296  18.5067  18.5887
    19.2035  19.7221  20.1905  20.2040  20.6517  23.3387  23.9311  24.9209
    31.9573

          k = 0.3750-0.5000-0.5000 (  8044 PWs)   bands (ev):

   -78.1140 -78.1140 -78.1140 -32.3994 -32.3727 -32.3668 -32.3668 -32.2259
   -32.2259 -32.2202 -32.1904 -32.1829   2.8494   2.8585   2.8585   2.9661
     2.9779  10.2810  14.5250  14.5250  14.6949  16.5067  16.5067  16.6448
    16.7277  16.8320  16.8320  17.7687  18.2525  18.2525  18.3245  18.5263
    19.2395  19.6368  19.9660  19.9660  20.4290  23.5885  23.5885  24.0733
    31.9740

          k =-0.5000-0.5000-0.5000 (  8024 PWs)   bands (ev):

   -78.1140 -78.1140 -78.1140 -32.4069 -32.3726 -32.3726 -32.3726 -32.2201
   -32.2201 -32.2201 -32.1829 -32.1829   2.8483   2.8483   2.8483   2.9754
     2.9754  10.2331  14.5990  14.5990  14.5990  16.6377  16.6377  16.6377
    17.1578  17.1578  17.1578  17.9111  17.9111  17.9111  18.3361  18.3361
    19.6349  19.7793  19.7793  19.7793  19.8897  23.3736  23.3736  23.3736
    32.5156

     the Fermi energy is    20.1047 ev

!    total energy              =    -924.33613799 Ry
     estimated scf accuracy    <          3.3E-09 Ry
     smearing contrib. (-TS)   =       0.00019657 Ry
     internal energy E=F+TS    =    -924.33633457 Ry

     The total energy is F=E-TS. E is the sum of the following terms:
     one-electron contribution =    -210.06704351 Ry
     hartree contribution      =     150.80296363 Ry
     xc contribution           =    -182.85090508 Ry
     ewald contribution        =    -682.22134961 Ry

     convergence has been achieved in   9 iterations

     Forces acting on atoms (cartesian axes, Ry/au):

     atom    1 type  1   force =     0.00000000    0.00000000    0.00000000
     atom    2 type  1   force =     0.00000000    0.00000000   -0.00000000
     atom    3 type  1   force =     0.00000000    0.00000000    0.00000000
     atom    4 type  2   force =     0.00000000    0.00000000    0.00000000

     Total force =     0.000000     Total SCF correction =     0.000000


     Computing stress (Cartesian axis) and pressure

          total   stress  (Ry/bohr**3)                   (kbar)     P=       -1.35
  -0.00000920   0.00000000   0.00000000           -1.35        0.00        0.00
   0.00000000  -0.00000920   0.00000000            0.00       -1.35        0.00
   0.00000000   0.00000000  -0.00000920            0.00        0.00       -1.35


     Writing output data file /work/k0508/k050801/PbPt3_ns/scf/PbPt3.save/
 
     init_run     :      0.68s CPU      1.17s WALL (       1 calls)
     electrons    :     20.82s CPU     21.38s WALL (       1 calls)
     forces       :      0.23s CPU      0.23s WALL (       1 calls)
     stress       :      1.07s CPU      1.07s WALL (       1 calls)

     Called by init_run:
     wfcinit      :      0.60s CPU      0.84s WALL (       1 calls)
     potinit      :      0.01s CPU      0.02s WALL (       1 calls)
     hinit0       :      0.02s CPU      0.26s WALL (       1 calls)

     Called by electrons:
     c_bands      :     18.12s CPU     18.55s WALL (      10 calls)
     sum_band     :      2.64s CPU      2.74s WALL (      10 calls)
     v_of_rho     :      0.05s CPU      0.06s WALL (      10 calls)
     mix_rho      :      0.01s CPU      0.01s WALL (      10 calls)

     Called by c_bands:
     init_us_2    :      0.36s CPU      0.40s WALL (     805 calls)
     cegterg      :     15.09s CPU     15.45s WALL (     350 calls)

     Called by *egterg:
     cdiaghg      :      1.83s CPU      2.03s WALL (    1114 calls)
     h_psi        :     12.09s CPU     12.46s WALL (    1184 calls)
     g_psi        :      0.05s CPU      0.05s WALL (     799 calls)

     Called by h_psi:
     h_psi:calbec :      0.66s CPU      0.68s WALL (    1184 calls)
     vloc_psi     :     10.79s CPU     11.12s WALL (    1184 calls)
     add_vuspsi   :      0.58s CPU      0.59s WALL (    1184 calls)

     General routines
     calbec       :      0.79s CPU      0.80s WALL (    1359 calls)
     fft          :      0.04s CPU      0.28s WALL (     125 calls)
     ffts         :      0.00s CPU      0.00s WALL (      10 calls)
     fftw         :     12.08s CPU     12.47s WALL (   83374 calls)
 
     Parallel routines
     fft_scatt_xy :      1.35s CPU      1.39s WALL (   83509 calls)
     fft_scatt_yz :      3.87s CPU      4.00s WALL (   83509 calls)
 
     PWSCF        :     23.12s CPU     24.88s WALL

 
   This run was terminated on:  19:14:23  29Nov2020            

=------------------------------------------------------------------------------=
   JOB DONE.
=------------------------------------------------------------------------------=
