mpijob CMD    : mpirun -f /tmp/mpiexec.params.k050801.197162
mpijob PARAMS : -d /home/k0508/k050801/qeirreps/ver_5/qeirreps/reference/PbPt3_nonsoc
        r1i5n19 10 omplace -nt 4 "/home/k0508/k050801/qe-6.6/bin/bands.x"

SGI MPT Placement option
--------------------------
omplace -nt 4

Node   MPI
------------
r1i5n19 10


     Program BANDS v.6.6 starts on 29Nov2020 at 19:16:45 

     This program is part of the open-source Quantum ESPRESSO suite
     for quantum simulation of materials; please cite
         "P. Giannozzi et al., J. Phys.:Condens. Matter 21 395502 (2009);
         "P. Giannozzi et al., J. Phys.:Condens. Matter 29 465901 (2017);
          URL http://www.quantum-espresso.org", 
     in publications or presentations arising from this work. More details at
     http://www.quantum-espresso.org/quote

     Parallel version (MPI), running on    10 processors

     MPI processes distributed on     1 nodes
     R & G space division:  proc/nbgrp/npool/nimage =      10
     Fft bands division:     nmany     =       1

     Reading xml data from directory:

     /work/k0508/k050801/PbPt3_ns/band/PbPt3.save/

     IMPORTANT: XC functional enforced from input :
     Exchange-correlation= PBE
                           (   1   4   3   4   0   0   0)
     Any further DFT definition will be discarded
     Please, verify this is what you really want

 
     Parallelization info
     --------------------
     sticks:   dense  smooth     PW     G-vecs:    dense   smooth      PW
     Min         194     194     55                 6422     6422     979
     Max         195     195     56                 6426     6426     982
     Sum        1941    1941    553                64229    64229    9795
 
     Reading collected, re-writing distributed wavefunctions
     high-symmetry point:  0.0000 0.0000 0.0000   x coordinate   0.0000
     high-symmetry point:  0.0000 0.5000 0.0000   x coordinate   0.5000
     high-symmetry point:  0.5000 0.5000 0.0000   x coordinate   1.0000
     high-symmetry point:  0.0000 0.0000 0.0000   x coordinate   1.7071
     high-symmetry point:  0.5000 0.5000 0.5000   x coordinate   2.5731
     high-symmetry point:  0.0000 0.5000 0.0000   x coordinate   3.2802
     high-symmetry point:  0.5000 0.5000 0.5000   x coordinate   3.2802
     high-symmetry point:  0.5000 0.5000 0.0000   x coordinate   3.7802

     Plottable bands (eV) written to file PbPt3.band.gnu
     Bands written to file PbPt3.band

 **************************************************************************

                    xk=(   0.00000,   0.00000,   0.00000  )

     point group O_h (m-3m) 
     there are 10 classes
     the character table:

       E     8C3   3C2   6C4   6C2'  i     8S6   3s_h  6S4   6s_d 
A_1g   1.00  1.00  1.00  1.00  1.00  1.00  1.00  1.00  1.00  1.00
A_2g   1.00  1.00  1.00 -1.00 -1.00  1.00  1.00  1.00 -1.00 -1.00
E_g    2.00 -1.00  2.00  0.00  0.00  2.00 -1.00  2.00  0.00  0.00
T_1g   3.00  0.00 -1.00  1.00 -1.00  3.00  0.00 -1.00  1.00 -1.00
T_2g   3.00  0.00 -1.00 -1.00  1.00  3.00  0.00 -1.00 -1.00  1.00
A_1u   1.00  1.00  1.00  1.00  1.00 -1.00 -1.00 -1.00 -1.00 -1.00
A_2u   1.00  1.00  1.00 -1.00 -1.00 -1.00 -1.00 -1.00  1.00  1.00
E_u    2.00 -1.00  2.00  0.00  0.00 -2.00  1.00 -2.00  0.00  0.00
T_1u   3.00  0.00 -1.00  1.00 -1.00 -3.00  0.00  1.00 -1.00  1.00
T_2u   3.00  0.00 -1.00 -1.00  1.00 -3.00  0.00  1.00  1.00 -1.00

     the symmetry operations in each class and the name of the first element:

     E        1
                                                                 
     8C3     17   19   20   18   24   21   22   23
                                                                 
     3C2      2    4    3
                                                                 
     6C4      7    8   15   16   12   11
                                                                 
     6C2'     5    6   14   13   10    9
                                                                 
     i       25
                                                                 
     8S6     41   43   44   42   48   45   46   47
                                                                 
     3s_h    26   28   27
                                                                 
     6S4     31   32   39   40   36   35
                                                                 
     6s_d    29   30   38   37   34   33
                                                                 

     Band symmetry, O_h (m-3m)  point group:

     e(  1 -  1) =    -78.12448  eV     1   --> A_1g G_1   G_1+
     e(  2 -  3) =    -78.10936  eV     2   --> E_g  G_12  G_3+
     e(  4 -  6) =    -32.37544  eV     3   --> T_1u G_15  G_4-
     e(  7 -  9) =    -32.28287  eV     3   --> T_2u G_25  G_5-
     e( 10 - 12) =    -32.18946  eV     3   --> T_1u G_15  G_4-
     e( 13 - 14) =      2.84325  eV     2   --> E_g  G_12  G_3+
     e( 15 - 17) =      2.88894  eV     3   --> T_2g G_25' G_5+
     e( 18 - 18) =      8.23334  eV     1   --> A_1g G_1   G_1+
     e( 19 - 19) =     13.73283  eV     1   --> A_1g G_1   G_1+
     e( 20 - 22) =     15.26035  eV     3   --> T_2g G_25' G_5+
     e( 23 - 24) =     15.27115  eV     2   --> E_g  G_12  G_3+
     e( 25 - 27) =     17.91149  eV     3   --> T_2g G_25' G_5+
     e( 28 - 29) =     19.00301  eV     2   --> E_g  G_12  G_3+
     e( 30 - 32) =     19.29084  eV     3   --> T_1u G_15  G_4-
     e( 33 - 33) =     19.69544  eV     1   --> A_2g G_2   G_2+
     e( 34 - 36) =     20.16792  eV     3   --> T_1g G_15' G_4+
     e( 37 - 37) =     21.29648  eV     1   --> A_1g G_1   G_1+
     e( 38 - 39) =     25.83275  eV     2   --> E_g  G_12  G_3+
     e( 40 - 41) =     27.84437  eV     2   -->   ?

 **************************************************************************

 **************************************************************************

                    xk=(   0.00000,   0.00833,   0.00000  )

     point group C_4v (4mm) 
     there are  5 classes
     the character table:

       E     2C4   C2    2s_v  2s_d 
A_1    1.00  1.00  1.00  1.00  1.00
A_2    1.00  1.00  1.00 -1.00 -1.00
B_1    1.00 -1.00  1.00  1.00 -1.00
B_2    1.00 -1.00  1.00 -1.00  1.00
E      2.00  0.00 -2.00  0.00  0.00

     the symmetry operations in each class and the name of the first element:

     E        1
                                                                 
     2C4      3    4
                                                                 
     C2       2
                                                                 
     2s_v     5    6
                                                                 
     2s_d     7    8
                                                                 

     Band symmetry, C_4v (4mm)  point group:

     e(  1 -  1) =    -78.12447  eV     1   --> A_1  G_1 D_1   
     e(  2 -  3) =    -78.10936  eV     2   --> A_1  G_1 D_1   
     e(  2 -  3) =    -78.10936  eV     2   --> B_1  G_3 D_2   
     e(  4 -  6) =    -32.37542  eV     3   --> A_1  G_1 D_1   
     e(  4 -  6) =    -32.37542  eV     3   --> E    G_5 D_5   
     e(  7 -  9) =    -32.28287  eV     3   --> B_1  G_3 D_2   
     e(  7 -  9) =    -32.28287  eV     3   --> E    G_5 D_5   
     e( 10 - 12) =    -32.18950  eV     3   --> A_1  G_1 D_1   
     e( 10 - 12) =    -32.18950  eV     3   --> E    G_5 D_5   
     e( 13 - 14) =      2.84328  eV     2   --> A_1  G_1 D_1   
     e( 13 - 14) =      2.84328  eV     2   --> B_1  G_3 D_2   
     e( 15 - 17) =      2.88894  eV     3   --> B_2  G_4 D_2'  
     e( 15 - 17) =      2.88894  eV     3   --> E    G_5 D_5   
     e( 18 - 18) =      8.23402  eV     1   --> A_1  G_1 D_1   
     e( 19 - 19) =     13.73326  eV     1   --> A_1  G_1 D_1   
     e( 20 - 22) =     15.26048  eV     3   --> B_2  G_4 D_2'  
     e( 20 - 22) =     15.26048  eV     3   --> E    G_5 D_5   
     e( 23 - 23) =     15.27048  eV     1   --> A_1  G_1 D_1   
     e( 24 - 24) =     15.27172  eV     1   --> B_1  G_3 D_2   
     e( 25 - 26) =     17.90942  eV     2   --> E    G_5 D_5   
     e( 27 - 27) =     17.91121  eV     1   --> B_2  G_4 D_2'  
     e( 28 - 28) =     19.00058  eV     1   --> A_1  G_1 D_1   
     e( 29 - 29) =     19.00296  eV     1   --> B_1  G_3 D_2   
     e( 30 - 30) =     19.28616  eV     1   --> A_1  G_1 D_1   
     e( 31 - 32) =     19.29093  eV     2   --> E    G_5 D_5   
     e( 33 - 33) =     19.69480  eV     1   --> B_1  G_3 D_2   
     e( 34 - 34) =     20.16792  eV     1   --> A_2  G_2 D_1'  
     e( 35 - 36) =     20.17000  eV     2   --> E    G_5 D_5   
     e( 37 - 37) =     21.30202  eV     1   --> A_1  G_1 D_1   
     e( 38 - 38) =     25.83195  eV     1   --> A_1  G_1 D_1   
     e( 39 - 39) =     25.83248  eV     1   --> B_1  G_3 D_2   
     e( 40 - 41) =     27.84496  eV     2   --> E    G_5 D_5   

 **************************************************************************

 **************************************************************************

                    xk=(   0.00000,   0.01667,   0.00000  )

     Band symmetry, C_4v (4mm)  point group:

     e(  1 -  1) =    -78.12447  eV     1   --> A_1  G_1 D_1   
     e(  2 -  3) =    -78.10937  eV     2   --> A_1  G_1 D_1   
     e(  2 -  3) =    -78.10937  eV     2   --> B_1  G_3 D_2   
     e(  4 -  6) =    -32.37537  eV     3   --> A_1  G_1 D_1   
     e(  4 -  6) =    -32.37537  eV     3   --> E    G_5 D_5   
     e(  7 -  9) =    -32.28288  eV     3   --> B_1  G_3 D_2   
     e(  7 -  9) =    -32.28288  eV     3   --> E    G_5 D_5   
     e( 10 - 12) =    -32.18959  eV     3   --> A_1  G_1 D_1   
     e( 10 - 12) =    -32.18959  eV     3   --> E    G_5 D_5   
     e( 13 - 13) =      2.84335  eV     1   --> B_1  G_3 D_2   
     e( 14 - 14) =      2.84351  eV     1   --> A_1  G_1 D_1   
     e( 15 - 17) =      2.88896  eV     3   --> B_2  G_4 D_2'  
     e( 15 - 17) =      2.88896  eV     3   --> E    G_5 D_5   
     e( 18 - 18) =      8.23608  eV     1   --> A_1  G_1 D_1   
     e( 19 - 19) =     13.73454  eV     1   --> A_1  G_1 D_1   
     e( 20 - 20) =     15.26087  eV     1   --> B_2  G_4 D_2'  
     e( 21 - 22) =     15.26111  eV     2   --> E    G_5 D_5   
     e( 23 - 23) =     15.26848  eV     1   --> A_1  G_1 D_1   
     e( 24 - 24) =     15.27344  eV     1   --> B_1  G_3 D_2   
     e( 25 - 26) =     17.90325  eV     2   --> E    G_5 D_5   
     e( 27 - 27) =     17.91037  eV     1   --> B_2  G_4 D_2'  
     e( 28 - 28) =     18.99304  eV     1   --> A_1  G_1 D_1   
     e( 29 - 29) =     19.00282  eV     1   --> B_1  G_3 D_2   
     e( 30 - 30) =     19.27265  eV     1   --> A_1  G_1 D_1   
     e( 31 - 32) =     19.29116  eV     2   --> E    G_5 D_5   
     e( 33 - 33) =     19.69287  eV     1   --> B_1  G_3 D_2   
     e( 34 - 34) =     20.16792  eV     1   --> A_2  G_2 D_1'  
     e( 35 - 36) =     20.17628  eV     2   --> E    G_5 D_5   
     e( 37 - 37) =     21.31834  eV     1   --> A_1  G_1 D_1   
     e( 38 - 38) =     25.82964  eV     1   --> A_1  G_1 D_1   
     e( 39 - 39) =     25.83165  eV     1   --> B_1  G_3 D_2   
     e( 40 - 41) =     27.84671  eV     2   --> E    G_5 D_5   

 **************************************************************************

 **************************************************************************

                    xk=(   0.00000,   0.02500,   0.00000  )

     Band symmetry, C_4v (4mm)  point group:

     e(  1 -  1) =    -78.12446  eV     1   --> A_1  G_1 D_1   
     e(  2 -  3) =    -78.10938  eV     2   --> A_1  G_1 D_1   
     e(  2 -  3) =    -78.10938  eV     2   --> B_1  G_3 D_2   
     e(  4 -  6) =    -32.37528  eV     3   --> A_1  G_1 D_1   
     e(  4 -  6) =    -32.37528  eV     3   --> E    G_5 D_5   
     e(  7 -  9) =    -32.28290  eV     3   --> B_1  G_3 D_2   
     e(  7 -  9) =    -32.28290  eV     3   --> E    G_5 D_5   
     e( 10 - 10) =    -32.18974  eV     1   --> A_1  G_1 D_1   
     e( 11 - 12) =    -32.18958  eV     2   --> E    G_5 D_5   
     e( 13 - 13) =      2.84347  eV     1   --> B_1  G_3 D_2   
     e( 14 - 14) =      2.84382  eV     1   --> A_1  G_1 D_1   
     e( 15 - 15) =      2.88898  eV     1   --> B_2  G_4 D_2'  
     e( 16 - 17) =      2.88912  eV     2   --> E    G_5 D_5   
     e( 18 - 18) =      8.23950  eV     1   --> A_1  G_1 D_1   
     e( 19 - 19) =     13.73667  eV     1   --> A_1  G_1 D_1   
     e( 20 - 20) =     15.26152  eV     1   --> B_2  G_4 D_2'  
     e( 21 - 22) =     15.26205  eV     2   --> E    G_5 D_5   
     e( 23 - 23) =     15.26513  eV     1   --> A_1  G_1 D_1   
     e( 24 - 24) =     15.27631  eV     1   --> B_1  G_3 D_2   
     e( 25 - 26) =     17.89311  eV     2   --> E    G_5 D_5   
     e( 27 - 27) =     17.90898  eV     1   --> B_2  G_4 D_2'  
     e( 28 - 28) =     18.97967  eV     1   --> A_1  G_1 D_1   
     e( 29 - 29) =     19.00257  eV     1   --> B_1  G_3 D_2   
     e( 30 - 30) =     19.25181  eV     1   --> A_1  G_1 D_1   
     e( 31 - 32) =     19.29137  eV     2   --> E    G_5 D_5   
     e( 33 - 33) =     19.68967  eV     1   --> B_1  G_3 D_2   
     e( 34 - 34) =     20.16793  eV     1   --> A_2  G_2 D_1'  
     e( 35 - 36) =     20.18680  eV     2   --> E    G_5 D_5   
     e( 37 - 37) =     21.34460  eV     1   --> A_1  G_1 D_1   
     e( 38 - 38) =     25.82605  eV     1   --> A_1  G_1 D_1   
     e( 39 - 39) =     25.83027  eV     1   --> B_1  G_3 D_2   
     e( 40 - 41) =     27.84956  eV     2   --> E    G_5 D_5   

 **************************************************************************

 **************************************************************************

                    xk=(   0.00000,   0.03333,   0.00000  )

     Band symmetry, C_4v (4mm)  point group:

     e(  1 -  1) =    -78.12444  eV     1   --> A_1  G_1 D_1   
     e(  2 -  3) =    -78.10940  eV     2   --> A_1  G_1 D_1   
     e(  2 -  3) =    -78.10940  eV     2   --> B_1  G_3 D_2   
     e(  4 -  5) =    -32.37516  eV     2   --> E    G_5 D_5   
     e(  6 -  6) =    -32.37498  eV     1   --> A_1  G_1 D_1   
     e(  7 -  9) =    -32.28294  eV     3   --> B_1  G_3 D_2   
     e(  7 -  9) =    -32.28294  eV     3   --> E    G_5 D_5   
     e( 10 - 10) =    -32.18996  eV     1   --> A_1  G_1 D_1   
     e( 11 - 12) =    -32.18968  eV     2   --> E    G_5 D_5   
     e( 13 - 13) =      2.84364  eV     1   --> B_1  G_3 D_2   
     e( 14 - 14) =      2.84426  eV     1   --> A_1  G_1 D_1   
     e( 15 - 15) =      2.88902  eV     1   --> B_2  G_4 D_2'  
     e( 16 - 17) =      2.88926  eV     2   --> E    G_5 D_5   
     e( 18 - 18) =      8.24430  eV     1   --> A_1  G_1 D_1   
     e( 19 - 19) =     13.73964  eV     1   --> A_1  G_1 D_1   
     e( 20 - 20) =     15.26042  eV     1   --> A_1  G_1 D_1   
     e( 21 - 21) =     15.26243  eV     1   --> B_2  G_4 D_2'  
     e( 22 - 23) =     15.26336  eV     2   --> E    G_5 D_5   
     e( 24 - 24) =     15.28032  eV     1   --> B_1  G_3 D_2   
     e( 25 - 26) =     17.87921  eV     2   --> E    G_5 D_5   
     e( 27 - 27) =     17.90703  eV     1   --> B_2  G_4 D_2'  
     e( 28 - 28) =     18.95929  eV     1   --> A_1  G_1 D_1   
     e( 29 - 29) =     19.00223  eV     1   --> B_1  G_3 D_2   
     e( 30 - 30) =     19.22599  eV     1   --> A_1  G_1 D_1   
     e( 31 - 32) =     19.29129  eV     2   --> E    G_5 D_5   
     e( 33 - 33) =     19.68519  eV     1   --> B_1  G_3 D_2   
     e( 34 - 34) =     20.16795  eV     1   --> A_2  G_2 D_1'  
     e( 35 - 36) =     20.20160  eV     2   --> E    G_5 D_5   
     e( 37 - 37) =     21.37951  eV     1   --> A_1  G_1 D_1   
     e( 38 - 38) =     25.82157  eV     1   --> A_1  G_1 D_1   
     e( 39 - 39) =     25.82833  eV     1   --> B_1  G_3 D_2   
     e( 40 - 41) =     27.85343  eV     2   --> E    G_5 D_5   

 **************************************************************************

 **************************************************************************

                    xk=(   0.00000,   0.04167,   0.00000  )

     Band symmetry, C_4v (4mm)  point group:

     e(  1 -  1) =    -78.12442  eV     1   --> A_1  G_1 D_1   
     e(  2 -  3) =    -78.10942  eV     2   --> A_1  G_1 D_1   
     e(  2 -  3) =    -78.10942  eV     2   --> B_1  G_3 D_2   
     e(  4 -  5) =    -32.37500  eV     2   --> E    G_5 D_5   
     e(  6 -  6) =    -32.37473  eV     1   --> A_1  G_1 D_1   
     e(  7 -  9) =    -32.28298  eV     3   --> B_1  G_3 D_2   
     e(  7 -  9) =    -32.28298  eV     3   --> E    G_5 D_5   
     e( 10 - 10) =    -32.19024  eV     1   --> A_1  G_1 D_1   
     e( 11 - 12) =    -32.18980  eV     2   --> E    G_5 D_5   
     e( 13 - 13) =      2.84386  eV     1   --> B_1  G_3 D_2   
     e( 14 - 14) =      2.84483  eV     1   --> A_1  G_1 D_1   
     e( 15 - 15) =      2.88906  eV     1   --> B_2  G_4 D_2'  
     e( 16 - 17) =      2.88944  eV     2   --> E    G_5 D_5   
     e( 18 - 18) =      8.25046  eV     1   --> A_1  G_1 D_1   
     e( 19 - 19) =     13.74343  eV     1   --> A_1  G_1 D_1   
     e( 20 - 20) =     15.25432  eV     1   --> A_1  G_1 D_1   
     e( 21 - 21) =     15.26360  eV     1   --> B_2  G_4 D_2'  
     e( 22 - 23) =     15.26504  eV     2   --> E    G_5 D_5   
     e( 24 - 24) =     15.28548  eV     1   --> B_1  G_3 D_2   
     e( 25 - 26) =     17.86182  eV     2   --> E    G_5 D_5   
     e( 27 - 27) =     17.90453  eV     1   --> B_2  G_4 D_2'  
     e( 28 - 28) =     18.93047  eV     1   --> A_1  G_1 D_1   
     e( 29 - 29) =     19.00178  eV     1   --> B_1  G_3 D_2   
     e( 30 - 30) =     19.19800  eV     1   --> A_1  G_1 D_1   
     e( 31 - 32) =     19.29063  eV     2   --> E    G_5 D_5   
     e( 33 - 33) =     19.67944  eV     1   --> B_1  G_3 D_2   
     e( 34 - 34) =     20.16796  eV     1   --> A_2  G_2 D_1'  
     e( 35 - 36) =     20.22076  eV     2   --> E    G_5 D_5   
     e( 37 - 37) =     21.42154  eV     1   --> A_1  G_1 D_1   
     e( 38 - 38) =     25.81673  eV     1   --> A_1  G_1 D_1   
     e( 39 - 39) =     25.82586  eV     1   --> B_1  G_3 D_2   
     e( 40 - 41) =     27.85817  eV     2   --> E    G_5 D_5   

 **************************************************************************

 **************************************************************************

                    xk=(   0.00000,   0.05000,   0.00000  )

     Band symmetry, C_4v (4mm)  point group:

     e(  1 -  1) =    -78.12439  eV     1   --> A_1  G_1 D_1   
     e(  2 -  3) =    -78.10944  eV     2   --> A_1  G_1 D_1   
     e(  2 -  3) =    -78.10944  eV     2   --> B_1  G_3 D_2   
     e(  4 -  5) =    -32.37481  eV     2   --> E    G_5 D_5   
     e(  6 -  6) =    -32.37443  eV     1   --> A_1  G_1 D_1   
     e(  7 -  8) =    -32.28302  eV     2   --> E    G_5 D_5   
     e(  9 -  9) =    -32.28290  eV     1   --> B_1  G_3 D_2   
     e( 10 - 10) =    -32.19058  eV     1   --> A_1  G_1 D_1   
     e( 11 - 12) =    -32.18994  eV     2   --> E    G_5 D_5   
     e( 13 - 13) =      2.84412  eV     1   --> B_1  G_3 D_2   
     e( 14 - 14) =      2.84551  eV     1   --> A_1  G_1 D_1   
     e( 15 - 15) =      2.88912  eV     1   --> B_2  G_4 D_2'  
     e( 16 - 17) =      2.88966  eV     2   --> E    G_5 D_5   
     e( 18 - 18) =      8.25798  eV     1   --> A_1  G_1 D_1   
     e( 19 - 19) =     13.74802  eV     1   --> A_1  G_1 D_1   
     e( 20 - 20) =     15.24680  eV     1   --> A_1  G_1 D_1   
     e( 21 - 21) =     15.26503  eV     1   --> B_2  G_4 D_2'  
     e( 22 - 23) =     15.26709  eV     2   --> E    G_5 D_5   
     e( 24 - 24) =     15.29178  eV     1   --> B_1  G_3 D_2   
     e( 25 - 26) =     17.84125  eV     2   --> E    G_5 D_5   
     e( 27 - 27) =     17.90149  eV     1   --> B_2  G_4 D_2'  
     e( 28 - 28) =     18.89208  eV     1   --> A_1  G_1 D_1   
     e( 29 - 29) =     19.00122  eV     1   --> B_1  G_3 D_2   
     e( 30 - 30) =     19.17048  eV     1   --> A_1  G_1 D_1   
     e( 31 - 32) =     19.28905  eV     2   --> E    G_5 D_5   
     e( 33 - 33) =     19.67242  eV     1   --> B_1  G_3 D_2   
     e( 34 - 34) =     20.16799  eV     1   --> A_2  G_2 D_1'  
     e( 35 - 36) =     20.24432  eV     2   --> E    G_5 D_5   
     e( 37 - 37) =     21.46902  eV     1   --> A_1  G_1 D_1   
     e( 38 - 38) =     25.81215  eV     1   --> A_1  G_1 D_1   
     e( 39 - 39) =     25.82284  eV     1   --> B_1  G_3 D_2   
     e( 40 - 41) =     27.86363  eV     2   --> E    G_5 D_5   

 **************************************************************************

 **************************************************************************

                    xk=(   0.00000,   0.05833,   0.00000  )

     Band symmetry, C_4v (4mm)  point group:

     e(  1 -  1) =    -78.12436  eV     1   --> A_1  G_1 D_1   
     e(  2 -  2) =    -78.10947  eV     1   --> A_1  G_1 D_1   
     e(  3 -  3) =    -78.10936  eV     1   --> B_1  G_3 D_2   
     e(  4 -  5) =    -32.37459  eV     2   --> E    G_5 D_5   
     e(  6 -  6) =    -32.37407  eV     1   --> A_1  G_1 D_1   
     e(  7 -  8) =    -32.28308  eV     2   --> E    G_5 D_5   
     e(  9 -  9) =    -32.28292  eV     1   --> B_1  G_3 D_2   
     e( 10 - 10) =    -32.19098  eV     1   --> A_1  G_1 D_1   
     e( 11 - 12) =    -32.19011  eV     2   --> E    G_5 D_5   
     e( 13 - 13) =      2.84443  eV     1   --> B_1  G_3 D_2   
     e( 14 - 14) =      2.84632  eV     1   --> A_1  G_1 D_1   
     e( 15 - 15) =      2.88918  eV     1   --> B_2  G_4 D_2'  
     e( 16 - 17) =      2.88992  eV     2   --> E    G_5 D_5   
     e( 18 - 18) =      8.26686  eV     1   --> A_1  G_1 D_1   
     e( 19 - 19) =     13.75339  eV     1   --> A_1  G_1 D_1   
     e( 20 - 20) =     15.23783  eV     1   --> A_1  G_1 D_1   
     e( 21 - 21) =     15.26670  eV     1   --> B_2  G_4 D_2'  
     e( 22 - 23) =     15.26948  eV     2   --> E    G_5 D_5   
     e( 24 - 24) =     15.29921  eV     1   --> B_1  G_3 D_2   
     e( 25 - 26) =     17.81784  eV     2   --> E    G_5 D_5   
     e( 27 - 27) =     17.89791  eV     1   --> B_2  G_4 D_2'  
     e( 28 - 28) =     18.84388  eV     1   --> A_1  G_1 D_1   
     e( 29 - 29) =     19.00054  eV     1   --> B_1  G_3 D_2   
     e( 30 - 30) =     19.14510  eV     1   --> A_1  G_1 D_1   
     e( 31 - 32) =     19.28623  eV     2   --> E    G_5 D_5   
     e( 33 - 33) =     19.66415  eV     1   --> B_1  G_3 D_2   
     e( 34 - 34) =     20.16801  eV     1   --> A_2  G_2 D_1'  
     e( 35 - 36) =     20.27230  eV     2   --> E    G_5 D_5   
     e( 37 - 37) =     21.52028  eV     1   --> A_1  G_1 D_1   
     e( 38 - 38) =     25.80852  eV     1   --> A_1  G_1 D_1   
     e( 39 - 39) =     25.81928  eV     1   --> B_1  G_3 D_2   
     e( 40 - 41) =     27.86959  eV     2   --> E    G_5 D_5   

 **************************************************************************

 **************************************************************************

                    xk=(   0.00000,   0.06667,   0.00000  )

     Band symmetry, C_4v (4mm)  point group:

     e(  1 -  1) =    -78.12433  eV     1   --> A_1  G_1 D_1   
     e(  2 -  2) =    -78.10951  eV     1   --> A_1  G_1 D_1   
     e(  3 -  3) =    -78.10936  eV     1   --> B_1  G_3 D_2   
     e(  4 -  5) =    -32.37433  eV     2   --> E    G_5 D_5   
     e(  6 -  6) =    -32.37365  eV     1   --> A_1  G_1 D_1   
     e(  7 -  8) =    -32.28315  eV     2   --> E    G_5 D_5   
     e(  9 -  9) =    -32.28293  eV     1   --> B_1  G_3 D_2   
     e( 10 - 10) =    -32.19143  eV     1   --> A_1  G_1 D_1   
     e( 11 - 12) =    -32.19031  eV     2   --> E    G_5 D_5   
     e( 13 - 13) =      2.84478  eV     1   --> B_1  G_3 D_2   
     e( 14 - 14) =      2.84724  eV     1   --> A_1  G_1 D_1   
     e( 15 - 15) =      2.88925  eV     1   --> B_2  G_4 D_2'  
     e( 16 - 17) =      2.89022  eV     2   --> E    G_5 D_5   
     e( 18 - 18) =      8.27710  eV     1   --> A_1  G_1 D_1   
     e( 19 - 19) =     13.75951  eV     1   --> A_1  G_1 D_1   
     e( 20 - 20) =     15.22737  eV     1   --> A_1  G_1 D_1   
     e( 21 - 21) =     15.26863  eV     1   --> B_2  G_4 D_2'  
     e( 22 - 23) =     15.27223  eV     2   --> E    G_5 D_5   
     e( 24 - 24) =     15.30778  eV     1   --> B_1  G_3 D_2   
     e( 25 - 26) =     17.79194  eV     2   --> E    G_5 D_5   
     e( 27 - 27) =     17.89380  eV     1   --> B_2  G_4 D_2'  
     e( 28 - 28) =     18.78675  eV     1   --> A_1  G_1 D_1   
     e( 29 - 29) =     18.99975  eV     1   --> B_1  G_3 D_2   
     e( 30 - 30) =     19.12235  eV     1   --> A_1  G_1 D_1   
     e( 31 - 32) =     19.28188  eV     2   --> E    G_5 D_5   
     e( 33 - 33) =     19.65464  eV     1   --> B_1  G_3 D_2   
     e( 34 - 34) =     20.16804  eV     1   --> A_2  G_2 D_1'  
     e( 35 - 36) =     20.30468  eV     2   --> E    G_5 D_5   
     e( 37 - 37) =     21.57374  eV     1   --> A_1  G_1 D_1   
     e( 38 - 38) =     25.80659  eV     1   --> A_1  G_1 D_1   
     e( 39 - 39) =     25.81519  eV     1   --> B_1  G_3 D_2   
     e( 40 - 41) =     27.87580  eV     2   --> E    G_5 D_5   

 **************************************************************************

 **************************************************************************

                    xk=(   0.00000,   0.07500,   0.00000  )

     Band symmetry, C_4v (4mm)  point group:

     e(  1 -  1) =    -78.12429  eV     1   --> A_1  G_1 D_1   
     e(  2 -  2) =    -78.10954  eV     1   --> A_1  G_1 D_1   
     e(  3 -  3) =    -78.10936  eV     1   --> B_1  G_3 D_2   
     e(  4 -  5) =    -32.37404  eV     2   --> E    G_5 D_5   
     e(  6 -  6) =    -32.37318  eV     1   --> A_1  G_1 D_1   
     e(  7 -  8) =    -32.28323  eV     2   --> E    G_5 D_5   
     e(  9 -  9) =    -32.28295  eV     1   --> B_1  G_3 D_2   
     e( 10 - 10) =    -32.19195  eV     1   --> A_1  G_1 D_1   
     e( 11 - 12) =    -32.19053  eV     2   --> E    G_5 D_5   
     e( 13 - 13) =      2.84518  eV     1   --> B_1  G_3 D_2   
     e( 14 - 14) =      2.84828  eV     1   --> A_1  G_1 D_1   
     e( 15 - 15) =      2.88933  eV     1   --> B_2  G_4 D_2'  
     e( 16 - 17) =      2.89055  eV     2   --> E    G_5 D_5   
     e( 18 - 18) =      8.28868  eV     1   --> A_1  G_1 D_1   
     e( 19 - 19) =     13.76634  eV     1   --> A_1  G_1 D_1   
     e( 20 - 20) =     15.21537  eV     1   --> A_1  G_1 D_1   
     e( 21 - 21) =     15.27080  eV     1   --> B_2  G_4 D_2'  
     e( 22 - 23) =     15.27531  eV     2   --> E    G_5 D_5   
     e( 24 - 24) =     15.31747  eV     1   --> B_1  G_3 D_2   
     e( 25 - 26) =     17.76391  eV     2   --> E    G_5 D_5   
     e( 27 - 27) =     17.88918  eV     1   --> B_2  G_4 D_2'  
     e( 28 - 28) =     18.72229  eV     1   --> A_1  G_1 D_1   
     e( 29 - 29) =     18.99882  eV     1   --> B_1  G_3 D_2   
     e( 30 - 30) =     19.10184  eV     1   --> A_1  G_1 D_1   
     e( 31 - 32) =     19.27576  eV     2   --> E    G_5 D_5   
     e( 33 - 33) =     19.64390  eV     1   --> B_1  G_3 D_2   
     e( 34 - 34) =     20.16807  eV     1   --> A_2  G_2 D_1'  
     e( 35 - 36) =     20.34139  eV     2   --> E    G_5 D_5   
     e( 37 - 37) =     21.62790  eV     1   --> A_1  G_1 D_1   
     e( 38 - 38) =     25.80713  eV     1   --> A_1  G_1 D_1   
     e( 39 - 39) =     25.81059  eV     1   --> B_1  G_3 D_2   
     e( 40 - 41) =     27.88200  eV     2   --> E    G_5 D_5   

 **************************************************************************

 **************************************************************************

                    xk=(   0.00000,   0.08333,   0.00000  )

     Band symmetry, C_4v (4mm)  point group:

     e(  1 -  1) =    -78.12425  eV     1   --> A_1  G_1 D_1   
     e(  2 -  2) =    -78.10959  eV     1   --> A_1  G_1 D_1   
     e(  3 -  3) =    -78.10936  eV     1   --> B_1  G_3 D_2   
     e(  4 -  5) =    -32.37372  eV     2   --> E    G_5 D_5   
     e(  6 -  6) =    -32.37265  eV     1   --> A_1  G_1 D_1   
     e(  7 -  8) =    -32.28331  eV     2   --> E    G_5 D_5   
     e(  9 -  9) =    -32.28297  eV     1   --> B_1  G_3 D_2   
     e( 10 - 10) =    -32.19253  eV     1   --> A_1  G_1 D_1   
     e( 11 - 12) =    -32.19077  eV     2   --> E    G_5 D_5   
     e( 13 - 13) =      2.84562  eV     1   --> B_1  G_3 D_2   
     e( 14 - 14) =      2.84943  eV     1   --> A_1  G_1 D_1   
     e( 15 - 15) =      2.88942  eV     1   --> B_2  G_4 D_2'  
     e( 16 - 17) =      2.89092  eV     2   --> E    G_5 D_5   
     e( 18 - 18) =      8.30161  eV     1   --> A_1  G_1 D_1   
     e( 19 - 19) =     13.77383  eV     1   --> A_1  G_1 D_1   
     e( 20 - 20) =     15.20180  eV     1   --> A_1  G_1 D_1   
     e( 21 - 21) =     15.27322  eV     1   --> B_2  G_4 D_2'  
     e( 22 - 23) =     15.27871  eV     2   --> E    G_5 D_5   
     e( 24 - 24) =     15.32829  eV     1   --> B_1  G_3 D_2   
     e( 25 - 26) =     17.73409  eV     2   --> E    G_5 D_5   
     e( 27 - 27) =     17.88405  eV     1   --> B_2  G_4 D_2'  
     e( 28 - 28) =     18.65228  eV     1   --> A_1  G_1 D_1   
     e( 29 - 29) =     18.99775  eV     1   --> B_1  G_3 D_2   
     e( 30 - 30) =     19.08289  eV     1   --> A_1  G_1 D_1   
     e( 31 - 32) =     19.26769  eV     2   --> E    G_5 D_5   
     e( 33 - 33) =     19.63194  eV     1   --> B_1  G_3 D_2   
     e( 34 - 34) =     20.16811  eV     1   --> A_2  G_2 D_1'  
     e( 35 - 36) =     20.38232  eV     2   --> E    G_5 D_5   
     e( 37 - 37) =     21.68144  eV     1   --> A_1  G_1 D_1   
     e( 38 - 38) =     25.80547  eV     1   --> B_1  G_3 D_2   
     e( 39 - 39) =     25.81090  eV     1   --> A_1  G_1 D_1   
     e( 40 - 41) =     27.88786  eV     2   --> E    G_5 D_5   

 **************************************************************************

 **************************************************************************

                    xk=(   0.00000,   0.09167,   0.00000  )

     Band symmetry, C_4v (4mm)  point group:

     e(  1 -  1) =    -78.12420  eV     1   --> A_1  G_1 D_1   
     e(  2 -  2) =    -78.10964  eV     1   --> A_1  G_1 D_1   
     e(  3 -  3) =    -78.10936  eV     1   --> B_1  G_3 D_2   
     e(  4 -  5) =    -32.37336  eV     2   --> E    G_5 D_5   
     e(  6 -  6) =    -32.37207  eV     1   --> A_1  G_1 D_1   
     e(  7 -  8) =    -32.28341  eV     2   --> E    G_5 D_5   
     e(  9 -  9) =    -32.28299  eV     1   --> B_1  G_3 D_2   
     e( 10 - 10) =    -32.19317  eV     1   --> A_1  G_1 D_1   
     e( 11 - 12) =    -32.19104  eV     2   --> E    G_5 D_5   
     e( 13 - 13) =      2.84611  eV     1   --> B_1  G_3 D_2   
     e( 14 - 14) =      2.85070  eV     1   --> A_1  G_1 D_1   
     e( 15 - 15) =      2.88952  eV     1   --> B_2  G_4 D_2'  
     e( 16 - 17) =      2.89133  eV     2   --> E    G_5 D_5   
     e( 18 - 18) =      8.31588  eV     1   --> A_1  G_1 D_1   
     e( 19 - 19) =     13.78193  eV     1   --> A_1  G_1 D_1   
     e( 20 - 20) =     15.18661  eV     1   --> A_1  G_1 D_1   
     e( 21 - 21) =     15.27588  eV     1   --> B_2  G_4 D_2'  
     e( 22 - 23) =     15.28242  eV     2   --> E    G_5 D_5   
     e( 24 - 24) =     15.34023  eV     1   --> B_1  G_3 D_2   
     e( 25 - 26) =     17.70280  eV     2   --> E    G_5 D_5   
     e( 27 - 27) =     17.87843  eV     1   --> B_2  G_4 D_2'  
     e( 28 - 28) =     18.57835  eV     1   --> A_1  G_1 D_1   
     e( 29 - 29) =     18.99652  eV     1   --> B_1  G_3 D_2   
     e( 30 - 30) =     19.06483  eV     1   --> A_1  G_1 D_1   
     e( 31 - 32) =     19.25756  eV     2   --> E    G_5 D_5   
     e( 33 - 33) =     19.61879  eV     1   --> B_1  G_3 D_2   
     e( 34 - 34) =     20.16815  eV     1   --> A_2  G_2 D_1'  
     e( 35 - 36) =     20.42730  eV     2   --> E    G_5 D_5   
     e( 37 - 37) =     21.73313  eV     1   --> A_1  G_1 D_1   
     e( 38 - 38) =     25.79984  eV     1   --> B_1  G_3 D_2   
     e( 39 - 39) =     25.81864  eV     1   --> A_1  G_1 D_1   
     e( 40 - 41) =     27.89304  eV     2   --> E    G_5 D_5   

 **************************************************************************

 **************************************************************************

                    xk=(   0.00000,   0.10000,   0.00000  )

     Band symmetry, C_4v (4mm)  point group:

     e(  1 -  1) =    -78.12415  eV     1   --> A_1  G_1 D_1   
     e(  2 -  2) =    -78.10969  eV     1   --> A_1  G_1 D_1   
     e(  3 -  3) =    -78.10936  eV     1   --> B_1  G_3 D_2   
     e(  4 -  5) =    -32.37298  eV     2   --> E    G_5 D_5   
     e(  6 -  6) =    -32.37144  eV     1   --> A_1  G_1 D_1   
     e(  7 -  8) =    -32.28351  eV     2   --> E    G_5 D_5   
     e(  9 -  9) =    -32.28301  eV     1   --> B_1  G_3 D_2   
     e( 10 - 10) =    -32.19386  eV     1   --> A_1  G_1 D_1   
     e( 11 - 12) =    -32.19133  eV     2   --> E    G_5 D_5   
     e( 13 - 13) =      2.84663  eV     1   --> B_1  G_3 D_2   
     e( 14 - 14) =      2.85206  eV     1   --> A_1  G_1 D_1   
     e( 15 - 15) =      2.88963  eV     1   --> B_2  G_4 D_2'  
     e( 16 - 17) =      2.89177  eV     2   --> E    G_5 D_5   
     e( 18 - 18) =      8.33148  eV     1   --> A_1  G_1 D_1   
     e( 19 - 19) =     13.79057  eV     1   --> A_1  G_1 D_1   
     e( 20 - 20) =     15.16977  eV     1   --> A_1  G_1 D_1   
     e( 21 - 21) =     15.27877  eV     1   --> B_2  G_4 D_2'  
     e( 22 - 23) =     15.28644  eV     2   --> E    G_5 D_5   
     e( 24 - 24) =     15.35327  eV     1   --> B_1  G_3 D_2   
     e( 25 - 26) =     17.67034  eV     2   --> E    G_5 D_5   
     e( 27 - 27) =     17.87233  eV     1   --> B_2  G_4 D_2'  
     e( 28 - 28) =     18.50186  eV     1   --> A_1  G_1 D_1   
     e( 29 - 29) =     18.99512  eV     1   --> B_1  G_3 D_2   
     e( 30 - 30) =     19.04711  eV     1   --> A_1  G_1 D_1   
     e( 31 - 32) =     19.24532  eV     2   --> E    G_5 D_5   
     e( 33 - 33) =     19.60446  eV     1   --> B_1  G_3 D_2   
     e( 34 - 34) =     20.16819  eV     1   --> A_2  G_2 D_1'  
     e( 35 - 36) =     20.47616  eV     2   --> E    G_5 D_5   
     e( 37 - 37) =     21.78194  eV     1   --> A_1  G_1 D_1   
     e( 38 - 38) =     25.79372  eV     1   --> B_1  G_3 D_2   
     e( 39 - 39) =     25.83102  eV     1   --> A_1  G_1 D_1   
     e( 40 - 41) =     27.89717  eV     2   --> E    G_5 D_5   

 **************************************************************************

 **************************************************************************

                    xk=(   0.00000,   0.10833,   0.00000  )

     Band symmetry, C_4v (4mm)  point group:

     e(  1 -  1) =    -78.12409  eV     1   --> A_1  G_1 D_1   
     e(  2 -  2) =    -78.10974  eV     1   --> A_1  G_1 D_1   
     e(  3 -  3) =    -78.10936  eV     1   --> B_1  G_3 D_2   
     e(  4 -  5) =    -32.37256  eV     2   --> E    G_5 D_5   
     e(  6 -  6) =    -32.37075  eV     1   --> A_1  G_1 D_1   
     e(  7 -  8) =    -32.28362  eV     2   --> E    G_5 D_5   
     e(  9 -  9) =    -32.28304  eV     1   --> B_1  G_3 D_2   
     e( 10 - 10) =    -32.19461  eV     1   --> A_1  G_1 D_1   
     e( 11 - 12) =    -32.19164  eV     2   --> E    G_5 D_5   
     e( 13 - 13) =      2.84720  eV     1   --> B_1  G_3 D_2   
     e( 14 - 14) =      2.85353  eV     1   --> A_1  G_1 D_1   
     e( 15 - 15) =      2.88974  eV     1   --> B_2  G_4 D_2'  
     e( 16 - 17) =      2.89224  eV     2   --> E    G_5 D_5   
     e( 18 - 18) =      8.34839  eV     1   --> A_1  G_1 D_1   
     e( 19 - 19) =     13.79969  eV     1   --> A_1  G_1 D_1   
     e( 20 - 20) =     15.15123  eV     1   --> A_1  G_1 D_1   
     e( 21 - 21) =     15.28189  eV     1   --> B_2  G_4 D_2'  
     e( 22 - 23) =     15.29073  eV     2   --> E    G_5 D_5   
     e( 24 - 24) =     15.36742  eV     1   --> B_1  G_3 D_2   
     e( 25 - 26) =     17.63700  eV     2   --> E    G_5 D_5   
     e( 27 - 27) =     17.86576  eV     1   --> B_2  G_4 D_2'  
     e( 28 - 28) =     18.42392  eV     1   --> A_1  G_1 D_1   
     e( 29 - 29) =     18.99352  eV     1   --> B_1  G_3 D_2   
     e( 30 - 30) =     19.02936  eV     1   --> A_1  G_1 D_1   
     e( 31 - 32) =     19.23096  eV     2   --> E    G_5 D_5   
     e( 33 - 33) =     19.58900  eV     1   --> B_1  G_3 D_2   
     e( 34 - 34) =     20.16823  eV     1   --> A_2  G_2 D_1'  
     e( 35 - 36) =     20.52866  eV     2   --> E    G_5 D_5   
     e( 37 - 37) =     21.82695  eV     1   --> A_1  G_1 D_1   
     e( 38 - 38) =     25.78712  eV     1   --> B_1  G_3 D_2   
     e( 39 - 39) =     25.84865  eV     1   --> A_1  G_1 D_1   
     e( 40 - 41) =     27.89985  eV     2   --> E    G_5 D_5   

 **************************************************************************

 **************************************************************************

                    xk=(   0.00000,   0.11667,   0.00000  )

     Band symmetry, C_4v (4mm)  point group:

     e(  1 -  1) =    -78.12403  eV     1   --> A_1  G_1 D_1   
     e(  2 -  2) =    -78.10980  eV     1   --> A_1  G_1 D_1   
     e(  3 -  3) =    -78.10936  eV     1   --> B_1  G_3 D_2   
     e(  4 -  5) =    -32.37211  eV     2   --> E    G_5 D_5   
     e(  6 -  6) =    -32.37001  eV     1   --> A_1  G_1 D_1   
     e(  7 -  8) =    -32.28375  eV     2   --> E    G_5 D_5   
     e(  9 -  9) =    -32.28307  eV     1   --> B_1  G_3 D_2   
     e( 10 - 10) =    -32.19542  eV     1   --> A_1  G_1 D_1   
     e( 11 - 12) =    -32.19198  eV     2   --> E    G_5 D_5   
     e( 13 - 13) =      2.84780  eV     1   --> B_1  G_3 D_2   
     e( 14 - 14) =      2.85510  eV     1   --> A_1  G_1 D_1   
     e( 15 - 15) =      2.88987  eV     1   --> B_2  G_4 D_2'  
     e( 16 - 17) =      2.89274  eV     2   --> E    G_5 D_5   
     e( 18 - 18) =      8.36662  eV     1   --> A_1  G_1 D_1   
     e( 19 - 19) =     13.80919  eV     1   --> A_1  G_1 D_1   
     e( 20 - 20) =     15.13099  eV     1   --> A_1  G_1 D_1   
     e( 21 - 21) =     15.28523  eV     1   --> B_2  G_4 D_2'  
     e( 22 - 23) =     15.29529  eV     2   --> E    G_5 D_5   
     e( 24 - 24) =     15.38266  eV     1   --> B_1  G_3 D_2   
     e( 25 - 26) =     17.60303  eV     2   --> E    G_5 D_5   
     e( 27 - 27) =     17.85874  eV     1   --> B_2  G_4 D_2'  
     e( 28 - 28) =     18.34545  eV     1   --> A_1  G_1 D_1   
     e( 29 - 29) =     18.99171  eV     1   --> B_1  G_3 D_2   
     e( 30 - 30) =     19.01131  eV     1   --> A_1  G_1 D_1   
     e( 31 - 32) =     19.21452  eV     2   --> E    G_5 D_5   
     e( 33 - 33) =     19.57242  eV     1   --> B_1  G_3 D_2   
     e( 34 - 34) =     20.16828  eV     1   --> A_2  G_2 D_1'  
     e( 35 - 36) =     20.58460  eV     2   --> E    G_5 D_5   
     e( 37 - 37) =     21.86740  eV     1   --> A_1  G_1 D_1   
     e( 38 - 38) =     25.78005  eV     1   --> B_1  G_3 D_2   
     e( 39 - 39) =     25.87203  eV     1   --> A_1  G_1 D_1   
     e( 40 - 41) =     27.90069  eV     2   --> E    G_5 D_5   

 **************************************************************************

 **************************************************************************

                    xk=(   0.00000,   0.12500,   0.00000  )

     Band symmetry, C_4v (4mm)  point group:

     e(  1 -  1) =    -78.12397  eV     1   --> A_1  G_1 D_1   
     e(  2 -  2) =    -78.10987  eV     1   --> A_1  G_1 D_1   
     e(  3 -  3) =    -78.10936  eV     1   --> B_1  G_3 D_2   
     e(  4 -  5) =    -32.37163  eV     2   --> E    G_5 D_5   
     e(  6 -  6) =    -32.36922  eV     1   --> A_1  G_1 D_1   
     e(  7 -  8) =    -32.28388  eV     2   --> E    G_5 D_5   
     e(  9 -  9) =    -32.28310  eV     1   --> B_1  G_3 D_2   
     e( 10 - 10) =    -32.19629  eV     1   --> A_1  G_1 D_1   
     e( 11 - 12) =    -32.19233  eV     2   --> E    G_5 D_5   
     e( 13 - 13) =      2.84843  eV     1   --> B_1  G_3 D_2   
     e( 14 - 14) =      2.85676  eV     1   --> A_1  G_1 D_1   
     e( 15 - 15) =      2.89000  eV     1   --> B_2  G_4 D_2'  
     e( 16 - 17) =      2.89328  eV     2   --> E    G_5 D_5   
     e( 18 - 18) =      8.38615  eV     1   --> A_1  G_1 D_1   
     e( 19 - 19) =     13.81896  eV     1   --> A_1  G_1 D_1   
     e( 20 - 20) =     15.10904  eV     1   --> A_1  G_1 D_1   
     e( 21 - 21) =     15.28879  eV     1   --> B_2  G_4 D_2'  
     e( 22 - 23) =     15.30009  eV     2   --> E    G_5 D_5   
     e( 24 - 24) =     15.39899  eV     1   --> B_1  G_3 D_2   
     e( 25 - 26) =     17.56867  eV     2   --> E    G_5 D_5   
     e( 27 - 27) =     17.85128  eV     1   --> B_2  G_4 D_2'  
     e( 28 - 28) =     18.26720  eV     1   --> A_1  G_1 D_1   
     e( 29 - 29) =     18.98966  eV     1   --> B_1  G_3 D_2   
     e( 30 - 30) =     18.99275  eV     1   --> A_1  G_1 D_1   
     e( 31 - 32) =     19.19606  eV     2   --> E    G_5 D_5   
     e( 33 - 33) =     19.55477  eV     1   --> B_1  G_3 D_2   
     e( 34 - 34) =     20.16834  eV     1   --> A_2  G_2 D_1'  
     e( 35 - 36) =     20.64373  eV     2   --> E    G_5 D_5   
     e( 37 - 37) =     21.90270  eV     1   --> A_1  G_1 D_1   
     e( 38 - 38) =     25.77252  eV     1   --> B_1  G_3 D_2   
     e( 39 - 39) =     25.90158  eV     1   --> A_1  G_1 D_1   
     e( 40 - 41) =     27.89930  eV     2   --> E    G_5 D_5   

 **************************************************************************

 **************************************************************************

                    xk=(   0.00000,   0.13333,   0.00000  )

     Band symmetry, C_4v (4mm)  point group:

     e(  1 -  1) =    -78.12390  eV     1   --> A_1  G_1 D_1   
     e(  2 -  2) =    -78.10994  eV     1   --> A_1  G_1 D_1   
     e(  3 -  3) =    -78.10936  eV     1   --> B_1  G_3 D_2   
     e(  4 -  5) =    -32.37112  eV     2   --> E    G_5 D_5   
     e(  6 -  6) =    -32.36838  eV     1   --> A_1  G_1 D_1   
     e(  7 -  8) =    -32.28402  eV     2   --> E    G_5 D_5   
     e(  9 -  9) =    -32.28313  eV     1   --> B_1  G_3 D_2   
     e( 10 - 10) =    -32.19721  eV     1   --> A_1  G_1 D_1   
     e( 11 - 12) =    -32.19271  eV     2   --> E    G_5 D_5   
     e( 13 - 13) =      2.84910  eV     1   --> B_1  G_3 D_2   
     e( 14 - 14) =      2.85852  eV     1   --> A_1  G_1 D_1   
     e( 15 - 15) =      2.89013  eV     1   --> B_2  G_4 D_2'  
     e( 16 - 17) =      2.89384  eV     2   --> E    G_5 D_5   
     e( 18 - 18) =      8.40697  eV     1   --> A_1  G_1 D_1   
     e( 19 - 19) =     13.82888  eV     1   --> A_1  G_1 D_1   
     e( 20 - 20) =     15.08540  eV     1   --> A_1  G_1 D_1   
     e( 21 - 21) =     15.29256  eV     1   --> B_2  G_4 D_2'  
     e( 22 - 23) =     15.30511  eV     2   --> E    G_5 D_5   
     e( 24 - 24) =     15.41639  eV     1   --> B_1  G_3 D_2   
     e( 25 - 26) =     17.53413  eV     2   --> E    G_5 D_5   
     e( 27 - 27) =     17.84342  eV     1   --> B_2  G_4 D_2'  
     e( 28 - 28) =     18.18978  eV     1   --> A_1  G_1 D_1   
     e( 29 - 29) =     18.97357  eV     1   --> A_1  G_1 D_1   
     e( 30 - 30) =     18.98733  eV     1   --> B_1  G_3 D_2   
     e( 31 - 32) =     19.17568  eV     2   --> E    G_5 D_5   
     e( 33 - 33) =     19.53609  eV     1   --> B_1  G_3 D_2   
     e( 34 - 34) =     20.16839  eV     1   --> A_2  G_2 D_1'  
     e( 35 - 36) =     20.70584  eV     2   --> E    G_5 D_5   
     e( 37 - 37) =     21.93238  eV     1   --> A_1  G_1 D_1   
     e( 38 - 38) =     25.76456  eV     1   --> B_1  G_3 D_2   
     e( 39 - 39) =     25.93754  eV     1   --> A_1  G_1 D_1   
     e( 40 - 41) =     27.89530  eV     2   --> E    G_5 D_5   

 **************************************************************************

 **************************************************************************

                    xk=(   0.00000,   0.14167,   0.00000  )

     Band symmetry, C_4v (4mm)  point group:

     e(  1 -  1) =    -78.12383  eV     1   --> A_1  G_1 D_1   
     e(  2 -  2) =    -78.11001  eV     1   --> A_1  G_1 D_1   
     e(  3 -  3) =    -78.10936  eV     1   --> B_1  G_3 D_2   
     e(  4 -  5) =    -32.37059  eV     2   --> E    G_5 D_5   
     e(  6 -  6) =    -32.36749  eV     1   --> A_1  G_1 D_1   
     e(  7 -  8) =    -32.28418  eV     2   --> E    G_5 D_5   
     e(  9 -  9) =    -32.28316  eV     1   --> B_1  G_3 D_2   
     e( 10 - 10) =    -32.19818  eV     1   --> A_1  G_1 D_1   
     e( 11 - 12) =    -32.19310  eV     2   --> E    G_5 D_5   
     e( 13 - 13) =      2.84981  eV     1   --> B_1  G_3 D_2   
     e( 14 - 14) =      2.86035  eV     1   --> A_1  G_1 D_1   
     e( 15 - 15) =      2.89028  eV     1   --> B_2  G_4 D_2'  
     e( 16 - 17) =      2.89443  eV     2   --> E    G_5 D_5   
     e( 18 - 18) =      8.42907  eV     1   --> A_1  G_1 D_1   
     e( 19 - 19) =     13.83880  eV     1   --> A_1  G_1 D_1   
     e( 20 - 20) =     15.06012  eV     1   --> A_1  G_1 D_1   
     e( 21 - 21) =     15.29654  eV     1   --> B_2  G_4 D_2'  
     e( 22 - 23) =     15.31034  eV     2   --> E    G_5 D_5   
     e( 24 - 24) =     15.43485  eV     1   --> B_1  G_3 D_2   
     e( 25 - 26) =     17.49961  eV     2   --> E    G_5 D_5   
     e( 27 - 27) =     17.83515  eV     1   --> B_2  G_4 D_2'  
     e( 28 - 28) =     18.11372  eV     1   --> A_1  G_1 D_1   
     e( 29 - 29) =     18.95366  eV     1   --> A_1  G_1 D_1   
     e( 30 - 30) =     18.98469  eV     1   --> B_1  G_3 D_2   
     e( 31 - 32) =     19.15346  eV     2   --> E    G_5 D_5   
     e( 33 - 33) =     19.51644  eV     1   --> B_1  G_3 D_2   
     e( 34 - 34) =     20.16845  eV     1   --> A_2  G_2 D_1'  
     e( 35 - 36) =     20.77069  eV     2   --> E    G_5 D_5   
     e( 37 - 37) =     21.95614  eV     1   --> A_1  G_1 D_1   
     e( 38 - 38) =     25.75618  eV     1   --> B_1  G_3 D_2   
     e( 39 - 39) =     25.98005  eV     1   --> A_1  G_1 D_1   
     e( 40 - 41) =     27.88833  eV     2   --> E    G_5 D_5   

 **************************************************************************

 **************************************************************************

                    xk=(   0.00000,   0.15000,   0.00000  )

     Band symmetry, C_4v (4mm)  point group:

     e(  1 -  1) =    -78.12375  eV     1   --> A_1  G_1 D_1   
     e(  2 -  2) =    -78.11009  eV     1   --> A_1  G_1 D_1   
     e(  3 -  3) =    -78.10936  eV     1   --> B_1  G_3 D_2   
     e(  4 -  5) =    -32.37002  eV     2   --> E    G_5 D_5   
     e(  6 -  6) =    -32.36655  eV     1   --> A_1  G_1 D_1   
     e(  7 -  8) =    -32.28434  eV     2   --> E    G_5 D_5   
     e(  9 -  9) =    -32.28319  eV     1   --> B_1  G_3 D_2   
     e( 10 - 10) =    -32.19921  eV     1   --> A_1  G_1 D_1   
     e( 11 - 12) =    -32.19351  eV     2   --> E    G_5 D_5   
     e( 13 - 13) =      2.85054  eV     1   --> B_1  G_3 D_2   
     e( 14 - 14) =      2.86227  eV     1   --> A_1  G_1 D_1   
     e( 15 - 15) =      2.89043  eV     1   --> B_2  G_4 D_2'  
     e( 16 - 17) =      2.89505  eV     2   --> E    G_5 D_5   
     e( 18 - 18) =      8.45242  eV     1   --> A_1  G_1 D_1   
     e( 19 - 19) =     13.84853  eV     1   --> A_1  G_1 D_1   
     e( 20 - 20) =     15.03328  eV     1   --> A_1  G_1 D_1   
     e( 21 - 21) =     15.30071  eV     1   --> B_2  G_4 D_2'  
     e( 22 - 23) =     15.31575  eV     2   --> E    G_5 D_5   
     e( 24 - 24) =     15.45436  eV     1   --> B_1  G_3 D_2   
     e( 25 - 26) =     17.46528  eV     2   --> E    G_5 D_5   
     e( 27 - 27) =     17.82651  eV     1   --> B_2  G_4 D_2'  
     e( 28 - 28) =     18.03947  eV     1   --> A_1  G_1 D_1   
     e( 29 - 29) =     18.93297  eV     1   --> A_1  G_1 D_1   
     e( 30 - 30) =     18.98168  eV     1   --> B_1  G_3 D_2   
     e( 31 - 32) =     19.12952  eV     2   --> E    G_5 D_5   
     e( 33 - 33) =     19.49588  eV     1   --> B_1  G_3 D_2   
     e( 34 - 34) =     20.16850  eV     1   --> A_2  G_2 D_1'  
     e( 35 - 36) =     20.83809  eV     2   --> E    G_5 D_5   
     e( 37 - 37) =     21.97384  eV     1   --> A_1  G_1 D_1   
     e( 38 - 38) =     25.74739  eV     1   --> B_1  G_3 D_2   
     e( 39 - 39) =     26.02909  eV     1   --> A_1  G_1 D_1   
     e( 40 - 41) =     27.87809  eV     2   --> E    G_5 D_5   

 **************************************************************************

 **************************************************************************

                    xk=(   0.00000,   0.15833,   0.00000  )

     Band symmetry, C_4v (4mm)  point group:

     e(  1 -  1) =    -78.12367  eV     1   --> A_1  G_1 D_1   
     e(  2 -  2) =    -78.11017  eV     1   --> A_1  G_1 D_1   
     e(  3 -  3) =    -78.10936  eV     1   --> B_1  G_3 D_2   
     e(  4 -  5) =    -32.36943  eV     2   --> E    G_5 D_5   
     e(  6 -  6) =    -32.36556  eV     1   --> A_1  G_1 D_1   
     e(  7 -  8) =    -32.28451  eV     2   --> E    G_5 D_5   
     e(  9 -  9) =    -32.28322  eV     1   --> B_1  G_3 D_2   
     e( 10 - 10) =    -32.20029  eV     1   --> A_1  G_1 D_1   
     e( 11 - 12) =    -32.19394  eV     2   --> E    G_5 D_5   
     e( 13 - 13) =      2.85131  eV     1   --> B_1  G_3 D_2   
     e( 14 - 14) =      2.86426  eV     1   --> A_1  G_1 D_1   
     e( 15 - 15) =      2.89058  eV     1   --> B_2  G_4 D_2'  
     e( 16 - 17) =      2.89569  eV     2   --> E    G_5 D_5   
     e( 18 - 18) =      8.47703  eV     1   --> A_1  G_1 D_1   
     e( 19 - 19) =     13.85787  eV     1   --> A_1  G_1 D_1   
     e( 20 - 20) =     15.00502  eV     1   --> A_1  G_1 D_1   
     e( 21 - 21) =     15.30507  eV     1   --> B_2  G_4 D_2'  
     e( 22 - 23) =     15.32132  eV     2   --> E    G_5 D_5   
     e( 24 - 24) =     15.47492  eV     1   --> B_1  G_3 D_2   
     e( 25 - 26) =     17.43131  eV     2   --> E    G_5 D_5   
     e( 27 - 27) =     17.81751  eV     1   --> B_2  G_4 D_2'  
     e( 28 - 28) =     17.96738  eV     1   --> A_1  G_1 D_1   
     e( 29 - 29) =     18.91145  eV     1   --> A_1  G_1 D_1   
     e( 30 - 30) =     18.97825  eV     1   --> B_1  G_3 D_2   
     e( 31 - 32) =     19.10397  eV     2   --> E    G_5 D_5   
     e( 33 - 33) =     19.47449  eV     1   --> B_1  G_3 D_2   
     e( 34 - 34) =     20.16857  eV     1   --> A_2  G_2 D_1'  
     e( 35 - 36) =     20.90783  eV     2   --> E    G_5 D_5   
     e( 37 - 37) =     21.98546  eV     1   --> A_1  G_1 D_1   
     e( 38 - 38) =     25.73822  eV     1   --> B_1  G_3 D_2   
     e( 39 - 39) =     26.08450  eV     1   --> A_1  G_1 D_1   
     e( 40 - 41) =     27.86432  eV     2   --> E    G_5 D_5   

 **************************************************************************

 **************************************************************************

                    xk=(   0.00000,   0.16667,   0.00000  )

     Band symmetry, C_4v (4mm)  point group:

     e(  1 -  1) =    -78.12358  eV     1   --> A_1  G_1 D_1   
     e(  2 -  2) =    -78.11025  eV     1   --> A_1  G_1 D_1   
     e(  3 -  3) =    -78.10936  eV     1   --> B_1  G_3 D_2   
     e(  4 -  5) =    -32.36881  eV     2   --> E    G_5 D_5   
     e(  6 -  6) =    -32.36452  eV     1   --> A_1  G_1 D_1   
     e(  7 -  8) =    -32.28470  eV     2   --> E    G_5 D_5   
     e(  9 -  9) =    -32.28326  eV     1   --> B_1  G_3 D_2   
     e( 10 - 10) =    -32.20142  eV     1   --> A_1  G_1 D_1   
     e( 11 - 12) =    -32.19439  eV     2   --> E    G_5 D_5   
     e( 13 - 13) =      2.85209  eV     1   --> B_1  G_3 D_2   
     e( 14 - 14) =      2.86632  eV     1   --> A_1  G_1 D_1   
     e( 15 - 15) =      2.89075  eV     1   --> B_2  G_4 D_2'  
     e( 16 - 17) =      2.89635  eV     2   --> E    G_5 D_5   
     e( 18 - 18) =      8.50287  eV     1   --> A_1  G_1 D_1   
     e( 19 - 19) =     13.86654  eV     1   --> A_1  G_1 D_1   
     e( 20 - 20) =     14.97554  eV     1   --> A_1  G_1 D_1   
     e( 21 - 21) =     15.30961  eV     1   --> B_2  G_4 D_2'  
     e( 22 - 23) =     15.32701  eV     2   --> E    G_5 D_5   
     e( 24 - 24) =     15.49649  eV     1   --> B_1  G_3 D_2   
     e( 25 - 26) =     17.39783  eV     2   --> E    G_5 D_5   
     e( 27 - 27) =     17.80819  eV     1   --> B_2  G_4 D_2'  
     e( 28 - 28) =     17.89777  eV     1   --> A_1  G_1 D_1   
     e( 29 - 29) =     18.88908  eV     1   --> A_1  G_1 D_1   
     e( 30 - 30) =     18.97433  eV     1   --> B_1  G_3 D_2   
     e( 31 - 32) =     19.07692  eV     2   --> E    G_5 D_5   
     e( 33 - 33) =     19.45235  eV     1   --> B_1  G_3 D_2   
     e( 34 - 34) =     20.16863  eV     1   --> A_2  G_2 D_1'  
     e( 35 - 36) =     20.97973  eV     2   --> E    G_5 D_5   
     e( 37 - 37) =     21.99111  eV     1   --> A_1  G_1 D_1   
     e( 38 - 38) =     25.72869  eV     1   --> B_1  G_3 D_2   
     e( 39 - 39) =     26.14600  eV     1   --> A_1  G_1 D_1   
     e( 40 - 41) =     27.84682  eV     2   --> E    G_5 D_5   

 **************************************************************************

 **************************************************************************

                    xk=(   0.00000,   0.17500,   0.00000  )

     Band symmetry, C_4v (4mm)  point group:

     e(  1 -  1) =    -78.12349  eV     1   --> A_1  G_1 D_1   
     e(  2 -  2) =    -78.11034  eV     1   --> A_1  G_1 D_1   
     e(  3 -  3) =    -78.10936  eV     1   --> B_1  G_3 D_2   
     e(  4 -  5) =    -32.36817  eV     2   --> E    G_5 D_5   
     e(  6 -  6) =    -32.36344  eV     1   --> A_1  G_1 D_1   
     e(  7 -  8) =    -32.28489  eV     2   --> E    G_5 D_5   
     e(  9 -  9) =    -32.28330  eV     1   --> B_1  G_3 D_2   
     e( 10 - 10) =    -32.20260  eV     1   --> A_1  G_1 D_1   
     e( 11 - 12) =    -32.19485  eV     2   --> E    G_5 D_5   
     e( 13 - 13) =      2.85291  eV     1   --> B_1  G_3 D_2   
     e( 14 - 14) =      2.86844  eV     1   --> A_1  G_1 D_1   
     e( 15 - 15) =      2.89091  eV     1   --> B_2  G_4 D_2'  
     e( 16 - 17) =      2.89704  eV     2   --> E    G_5 D_5   
     e( 18 - 18) =      8.52992  eV     1   --> A_1  G_1 D_1   
     e( 19 - 19) =     13.87424  eV     1   --> A_1  G_1 D_1   
     e( 20 - 20) =     14.94508  eV     1   --> A_1  G_1 D_1   
     e( 21 - 21) =     15.31432  eV     1   --> B_2  G_4 D_2'  
     e( 22 - 23) =     15.33281  eV     2   --> E    G_5 D_5   
     e( 24 - 24) =     15.51908  eV     1   --> B_1  G_3 D_2   
     e( 25 - 26) =     17.36498  eV     2   --> E    G_5 D_5   
     e( 27 - 27) =     17.79855  eV     1   --> B_2  G_4 D_2'  
     e( 28 - 28) =     17.83090  eV     1   --> A_1  G_1 D_1   
     e( 29 - 29) =     18.86584  eV     1   --> A_1  G_1 D_1   
     e( 30 - 30) =     18.96983  eV     1   --> B_1  G_3 D_2   
     e( 31 - 32) =     19.04850  eV     2   --> E    G_5 D_5   
     e( 33 - 33) =     19.42957  eV     1   --> B_1  G_3 D_2   
     e( 34 - 34) =     20.16870  eV     1   --> A_2  G_2 D_1'  
     e( 35 - 36) =     21.05363  eV     2   --> E    G_5 D_5   
     e( 37 - 37) =     21.99100  eV     1   --> A_1  G_1 D_1   
     e( 38 - 38) =     25.71881  eV     1   --> B_1  G_3 D_2   
     e( 39 - 39) =     26.21317  eV     1   --> A_1  G_1 D_1   
     e( 40 - 41) =     27.82546  eV     2   --> E    G_5 D_5   

 **************************************************************************

 **************************************************************************

                    xk=(   0.00000,   0.18333,   0.00000  )

     Band symmetry, C_4v (4mm)  point group:

     e(  1 -  1) =    -78.12340  eV     1   --> A_1  G_1 D_1   
     e(  2 -  2) =    -78.11043  eV     1   --> A_1  G_1 D_1   
     e(  3 -  3) =    -78.10936  eV     1   --> B_1  G_3 D_2   
     e(  4 -  5) =    -32.36750  eV     2   --> E    G_5 D_5   
     e(  6 -  6) =    -32.36231  eV     1   --> A_1  G_1 D_1   
     e(  7 -  8) =    -32.28510  eV     2   --> E    G_5 D_5   
     e(  9 -  9) =    -32.28334  eV     1   --> B_1  G_3 D_2   
     e( 10 - 10) =    -32.20383  eV     1   --> A_1  G_1 D_1   
     e( 11 - 12) =    -32.19532  eV     2   --> E    G_5 D_5   
     e( 13 - 13) =      2.85374  eV     1   --> B_1  G_3 D_2   
     e( 14 - 14) =      2.87062  eV     1   --> A_1  G_1 D_1   
     e( 15 - 15) =      2.89108  eV     1   --> B_2  G_4 D_2'  
     e( 16 - 17) =      2.89774  eV     2   --> E    G_5 D_5   
     e( 18 - 18) =      8.55816  eV     1   --> A_1  G_1 D_1   
     e( 19 - 19) =     13.88060  eV     1   --> A_1  G_1 D_1   
     e( 20 - 20) =     14.91399  eV     1   --> A_1  G_1 D_1   
     e( 21 - 21) =     15.31919  eV     1   --> B_2  G_4 D_2'  
     e( 22 - 23) =     15.33868  eV     2   --> E    G_5 D_5   
     e( 24 - 24) =     15.54266  eV     1   --> B_1  G_3 D_2   
     e( 25 - 26) =     17.33288  eV     2   --> E    G_5 D_5   
     e( 27 - 27) =     17.76697  eV     1   --> A_1  G_1 D_1   
     e( 28 - 28) =     17.78862  eV     1   --> B_2  G_4 D_2'  
     e( 29 - 29) =     18.84172  eV     1   --> A_1  G_1 D_1   
     e( 30 - 30) =     18.96464  eV     1   --> B_1  G_3 D_2   
     e( 31 - 32) =     19.01880  eV     2   --> E    G_5 D_5   
     e( 33 - 33) =     19.40629  eV     1   --> B_1  G_3 D_2   
     e( 34 - 34) =     20.16876  eV     1   --> A_2  G_2 D_1'  
     e( 35 - 36) =     21.12937  eV     2   --> E    G_5 D_5   
     e( 37 - 37) =     21.98542  eV     1   --> A_1  G_1 D_1   
     e( 38 - 38) =     25.70863  eV     1   --> B_1  G_3 D_2   
     e( 39 - 39) =     26.28551  eV     1   --> A_1  G_1 D_1   
     e( 40 - 41) =     27.80016  eV     2   --> E    G_5 D_5   

 **************************************************************************

 **************************************************************************

                    xk=(   0.00000,   0.19167,   0.00000  )

     Band symmetry, C_4v (4mm)  point group:

     e(  1 -  1) =    -78.12331  eV     1   --> A_1  G_1 D_1   
     e(  2 -  2) =    -78.11053  eV     1   --> A_1  G_1 D_1   
     e(  3 -  3) =    -78.10936  eV     1   --> B_1  G_3 D_2   
     e(  4 -  5) =    -32.36681  eV     2   --> E    G_5 D_5   
     e(  6 -  6) =    -32.36113  eV     1   --> A_1  G_1 D_1   
     e(  7 -  8) =    -32.28531  eV     2   --> E    G_5 D_5   
     e(  9 -  9) =    -32.28337  eV     1   --> B_1  G_3 D_2   
     e( 10 - 10) =    -32.20511  eV     1   --> A_1  G_1 D_1   
     e( 11 - 12) =    -32.19581  eV     2   --> E    G_5 D_5   
     e( 13 - 13) =      2.85460  eV     1   --> B_1  G_3 D_2   
     e( 14 - 14) =      2.87285  eV     1   --> A_1  G_1 D_1   
     e( 15 - 15) =      2.89126  eV     1   --> B_2  G_4 D_2'  
     e( 16 - 17) =      2.89846  eV     2   --> E    G_5 D_5   
     e( 18 - 18) =      8.58757  eV     1   --> A_1  G_1 D_1   
     e( 19 - 19) =     13.88518  eV     1   --> A_1  G_1 D_1   
     e( 20 - 20) =     14.88269  eV     1   --> A_1  G_1 D_1   
     e( 21 - 21) =     15.32421  eV     1   --> B_2  G_4 D_2'  
     e( 22 - 23) =     15.34459  eV     2   --> E    G_5 D_5   
     e( 24 - 24) =     15.56721  eV     1   --> B_1  G_3 D_2   
     e( 25 - 26) =     17.30165  eV     2   --> E    G_5 D_5   
     e( 27 - 27) =     17.70613  eV     1   --> A_1  G_1 D_1   
     e( 28 - 28) =     17.77843  eV     1   --> B_2  G_4 D_2'  
     e( 29 - 29) =     18.81674  eV     1   --> A_1  G_1 D_1   
     e( 30 - 30) =     18.95865  eV     1   --> B_1  G_3 D_2   
     e( 31 - 32) =     18.98795  eV     2   --> E    G_5 D_5   
     e( 33 - 33) =     19.38264  eV     1   --> B_1  G_3 D_2   
     e( 34 - 34) =     20.16883  eV     1   --> A_2  G_2 D_1'  
     e( 35 - 36) =     21.20681  eV     2   --> E    G_5 D_5   
     e( 37 - 37) =     21.97476  eV     1   --> A_1  G_1 D_1   
     e( 38 - 38) =     25.69815  eV     1   --> B_1  G_3 D_2   
     e( 39 - 39) =     26.36243  eV     1   --> A_1  G_1 D_1   
     e( 40 - 41) =     27.77091  eV     2   --> E    G_5 D_5   

 **************************************************************************

 **************************************************************************

                    xk=(   0.00000,   0.20000,   0.00000  )

     Band symmetry, C_4v (4mm)  point group:

     e(  1 -  1) =    -78.12321  eV     1   --> A_1  G_1 D_1   
     e(  2 -  2) =    -78.11062  eV     1   --> A_1  G_1 D_1   
     e(  3 -  3) =    -78.10936  eV     1   --> B_1  G_3 D_2   
     e(  4 -  5) =    -32.36610  eV     2   --> E    G_5 D_5   
     e(  6 -  6) =    -32.35991  eV     1   --> A_1  G_1 D_1   
     e(  7 -  8) =    -32.28554  eV     2   --> E    G_5 D_5   
     e(  9 -  9) =    -32.28341  eV     1   --> B_1  G_3 D_2   
     e( 10 - 10) =    -32.20644  eV     1   --> A_1  G_1 D_1   
     e( 11 - 12) =    -32.19631  eV     2   --> E    G_5 D_5   
     e( 13 - 13) =      2.85547  eV     1   --> B_1  G_3 D_2   
     e( 14 - 14) =      2.87513  eV     1   --> A_1  G_1 D_1   
     e( 15 - 15) =      2.89144  eV     1   --> B_2  G_4 D_2'  
     e( 16 - 17) =      2.89919  eV     2   --> E    G_5 D_5   
     e( 18 - 18) =      8.61813  eV     1   --> A_1  G_1 D_1   
     e( 19 - 19) =     13.88749  eV     1   --> A_1  G_1 D_1   
     e( 20 - 20) =     14.85170  eV     1   --> A_1  G_1 D_1   
     e( 21 - 21) =     15.32937  eV     1   --> B_2  G_4 D_2'  
     e( 22 - 23) =     15.35052  eV     2   --> E    G_5 D_5   
     e( 24 - 24) =     15.59272  eV     1   --> B_1  G_3 D_2   
     e( 25 - 26) =     17.27137  eV     2   --> E    G_5 D_5   
     e( 27 - 27) =     17.64850  eV     1   --> A_1  G_1 D_1   
     e( 28 - 28) =     17.76801  eV     1   --> B_2  G_4 D_2'  
     e( 29 - 29) =     18.79089  eV     1   --> A_1  G_1 D_1   
     e( 30 - 30) =     18.95169  eV     1   --> B_1  G_3 D_2   
     e( 31 - 32) =     18.95604  eV     2   --> E    G_5 D_5   
     e( 33 - 33) =     19.35882  eV     1   --> B_1  G_3 D_2   
     e( 34 - 34) =     20.16890  eV     1   --> A_2  G_2 D_1'  
     e( 35 - 36) =     21.28581  eV     2   --> E    G_5 D_5   
     e( 37 - 37) =     21.95943  eV     1   --> A_1  G_1 D_1   
     e( 38 - 38) =     25.68740  eV     1   --> B_1  G_3 D_2   
     e( 39 - 39) =     26.44325  eV     1   --> A_1  G_1 D_1   
     e( 40 - 41) =     27.73775  eV     2   --> E    G_5 D_5   

 **************************************************************************

 **************************************************************************

                    xk=(   0.00000,   0.20833,   0.00000  )

     Band symmetry, C_4v (4mm)  point group:

     e(  1 -  1) =    -78.12311  eV     1   --> A_1  G_1 D_1   
     e(  2 -  2) =    -78.11073  eV     1   --> A_1  G_1 D_1   
     e(  3 -  3) =    -78.10936  eV     1   --> B_1  G_3 D_2   
     e(  4 -  5) =    -32.36536  eV     2   --> E    G_5 D_5   
     e(  6 -  6) =    -32.35865  eV     1   --> A_1  G_1 D_1   
     e(  7 -  8) =    -32.28577  eV     2   --> E    G_5 D_5   
     e(  9 -  9) =    -32.28345  eV     1   --> B_1  G_3 D_2   
     e( 10 - 10) =    -32.20780  eV     1   --> A_1  G_1 D_1   
     e( 11 - 12) =    -32.19682  eV     2   --> E    G_5 D_5   
     e( 13 - 13) =      2.85636  eV     1   --> B_1  G_3 D_2   
     e( 14 - 14) =      2.87745  eV     1   --> A_1  G_1 D_1   
     e( 15 - 15) =      2.89162  eV     1   --> B_2  G_4 D_2'  
     e( 16 - 17) =      2.89994  eV     2   --> E    G_5 D_5   
     e( 18 - 18) =      8.64981  eV     1   --> A_1  G_1 D_1   
     e( 19 - 19) =     13.88694  eV     1   --> A_1  G_1 D_1   
     e( 20 - 20) =     14.82163  eV     1   --> A_1  G_1 D_1   
     e( 21 - 21) =     15.33466  eV     1   --> B_2  G_4 D_2'  
     e( 22 - 23) =     15.35643  eV     2   --> E    G_5 D_5   
     e( 24 - 24) =     15.61916  eV     1   --> B_1  G_3 D_2   
     e( 25 - 26) =     17.24216  eV     2   --> E    G_5 D_5   
     e( 27 - 27) =     17.59414  eV     1   --> A_1  G_1 D_1   
     e( 28 - 28) =     17.75738  eV     1   --> B_2  G_4 D_2'  
     e( 29 - 29) =     18.76420  eV     1   --> A_1  G_1 D_1   
     e( 30 - 31) =     18.92319  eV     2   --> E    G_5 D_5   
     e( 32 - 32) =     18.94361  eV     1   --> B_1  G_3 D_2   
     e( 33 - 33) =     19.33502  eV     1   --> B_1  G_3 D_2   
     e( 34 - 34) =     20.16897  eV     1   --> A_2  G_2 D_1'  
     e( 35 - 36) =     21.36625  eV     2   --> E    G_5 D_5   
     e( 37 - 37) =     21.93987  eV     1   --> A_1  G_1 D_1   
     e( 38 - 38) =     25.67643  eV     1   --> B_1  G_3 D_2   
     e( 39 - 39) =     26.52729  eV     1   --> A_1  G_1 D_1   
     e( 40 - 41) =     27.70075  eV     2   --> E    G_5 D_5   

 **************************************************************************

 **************************************************************************

                    xk=(   0.00000,   0.21667,   0.00000  )

     Band symmetry, C_4v (4mm)  point group:

     e(  1 -  1) =    -78.12300  eV     1   --> A_1  G_1 D_1   
     e(  2 -  2) =    -78.11083  eV     1   --> A_1  G_1 D_1   
     e(  3 -  3) =    -78.10936  eV     1   --> B_1  G_3 D_2   
     e(  4 -  5) =    -32.36461  eV     2   --> E    G_5 D_5   
     e(  6 -  6) =    -32.35735  eV     1   --> A_1  G_1 D_1   
     e(  7 -  8) =    -32.28602  eV     2   --> E    G_5 D_5   
     e(  9 -  9) =    -32.28349  eV     1   --> B_1  G_3 D_2   
     e( 10 - 10) =    -32.20922  eV     1   --> A_1  G_1 D_1   
     e( 11 - 12) =    -32.19734  eV     2   --> E    G_5 D_5   
     e( 13 - 13) =      2.85726  eV     1   --> B_1  G_3 D_2   
     e( 14 - 14) =      2.87979  eV     1   --> A_1  G_1 D_1   
     e( 15 - 15) =      2.89180  eV     1   --> B_2  G_4 D_2'  
     e( 16 - 17) =      2.90070  eV     2   --> E    G_5 D_5   
     e( 18 - 18) =      8.68257  eV     1   --> A_1  G_1 D_1   
     e( 19 - 19) =     13.88292  eV     1   --> A_1  G_1 D_1   
     e( 20 - 20) =     14.79316  eV     1   --> A_1  G_1 D_1   
     e( 21 - 21) =     15.34007  eV     1   --> B_2  G_4 D_2'  
     e( 22 - 23) =     15.36228  eV     2   --> E    G_5 D_5   
     e( 24 - 24) =     15.64650  eV     1   --> B_1  G_3 D_2   
     e( 25 - 26) =     17.21409  eV     2   --> E    G_5 D_5   
     e( 27 - 27) =     17.54308  eV     1   --> A_1  G_1 D_1   
     e( 28 - 28) =     17.74656  eV     1   --> B_2  G_4 D_2'  
     e( 29 - 29) =     18.73668  eV     1   --> A_1  G_1 D_1   
     e( 30 - 31) =     18.88950  eV     2   --> E    G_5 D_5   
     e( 32 - 32) =     18.93419  eV     1   --> B_1  G_3 D_2   
     e( 33 - 33) =     19.31148  eV     1   --> B_1  G_3 D_2   
     e( 34 - 34) =     20.16905  eV     1   --> A_2  G_2 D_1'  
     e( 35 - 36) =     21.44803  eV     2   --> E    G_5 D_5   
     e( 37 - 37) =     21.91653  eV     1   --> A_1  G_1 D_1   
     e( 38 - 38) =     25.66524  eV     1   --> B_1  G_3 D_2   
     e( 39 - 39) =     26.61379  eV     1   --> A_1  G_1 D_1   
     e( 40 - 41) =     27.66005  eV     2   --> E    G_5 D_5   

 **************************************************************************

 **************************************************************************

                    xk=(   0.00000,   0.22500,   0.00000  )

     Band symmetry, C_4v (4mm)  point group:

     e(  1 -  1) =    -78.12289  eV     1   --> A_1  G_1 D_1   
     e(  2 -  2) =    -78.11094  eV     1   --> A_1  G_1 D_1   
     e(  3 -  3) =    -78.10936  eV     1   --> B_1  G_3 D_2   
     e(  4 -  5) =    -32.36384  eV     2   --> E    G_5 D_5   
     e(  6 -  6) =    -32.35600  eV     1   --> A_1  G_1 D_1   
     e(  7 -  8) =    -32.28628  eV     2   --> E    G_5 D_5   
     e(  9 -  9) =    -32.28353  eV     1   --> B_1  G_3 D_2   
     e( 10 - 10) =    -32.21067  eV     1   --> A_1  G_1 D_1   
     e( 11 - 12) =    -32.19786  eV     2   --> E    G_5 D_5   
     e( 13 - 13) =      2.85816  eV     1   --> B_1  G_3 D_2   
     e( 14 - 14) =      2.88217  eV     1   --> A_1  G_1 D_1   
     e( 15 - 15) =      2.89199  eV     1   --> B_2  G_4 D_2'  
     e( 16 - 17) =      2.90147  eV     2   --> E    G_5 D_5   
     e( 18 - 18) =      8.71640  eV     1   --> A_1  G_1 D_1   
     e( 19 - 19) =     13.87477  eV     1   --> A_1  G_1 D_1   
     e( 20 - 20) =     14.76702  eV     1   --> A_1  G_1 D_1   
     e( 21 - 21) =     15.34558  eV     1   --> B_2  G_4 D_2'  
     e( 22 - 23) =     15.36806  eV     2   --> E    G_5 D_5   
     e( 24 - 24) =     15.67474  eV     1   --> B_1  G_3 D_2   
     e( 25 - 26) =     17.18723  eV     2   --> E    G_5 D_5   
     e( 27 - 27) =     17.49533  eV     1   --> A_1  G_1 D_1   
     e( 28 - 28) =     17.73559  eV     1   --> B_2  G_4 D_2'  
     e( 29 - 29) =     18.70837  eV     1   --> A_1  G_1 D_1   
     e( 30 - 31) =     18.85506  eV     2   --> E    G_5 D_5   
     e( 32 - 32) =     18.92321  eV     1   --> B_1  G_3 D_2   
     e( 33 - 33) =     19.28847  eV     1   --> B_1  G_3 D_2   
     e( 34 - 34) =     20.16912  eV     1   --> A_2  G_2 D_1'  
     e( 35 - 36) =     21.53102  eV     2   --> E    G_5 D_5   
     e( 37 - 37) =     21.88988  eV     1   --> A_1  G_1 D_1   
     e( 38 - 38) =     25.65387  eV     1   --> B_1  G_3 D_2   
     e( 39 - 39) =     26.70200  eV     1   --> A_1  G_1 D_1   
     e( 40 - 41) =     27.61577  eV     2   --> E    G_5 D_5   

 **************************************************************************

 **************************************************************************

                    xk=(   0.00000,   0.23333,   0.00000  )

     Band symmetry, C_4v (4mm)  point group:

     e(  1 -  1) =    -78.12278  eV     1   --> A_1  G_1 D_1   
     e(  2 -  2) =    -78.11105  eV     1   --> A_1  G_1 D_1   
     e(  3 -  3) =    -78.10936  eV     1   --> B_1  G_3 D_2   
     e(  4 -  5) =    -32.36306  eV     2   --> E    G_5 D_5   
     e(  6 -  6) =    -32.35461  eV     1   --> A_1  G_1 D_1   
     e(  7 -  8) =    -32.28654  eV     2   --> E    G_5 D_5   
     e(  9 -  9) =    -32.28357  eV     1   --> B_1  G_3 D_2   
     e( 10 - 10) =    -32.21216  eV     1   --> A_1  G_1 D_1   
     e( 11 - 12) =    -32.19840  eV     2   --> E    G_5 D_5   
     e( 13 - 13) =      2.85908  eV     1   --> B_1  G_3 D_2   
     e( 14 - 14) =      2.88456  eV     1   --> A_1  G_1 D_1   
     e( 15 - 15) =      2.89218  eV     1   --> B_2  G_4 D_2'  
     e( 16 - 17) =      2.90224  eV     2   --> E    G_5 D_5   
     e( 18 - 18) =      8.75125  eV     1   --> A_1  G_1 D_1   
     e( 19 - 19) =     13.86189  eV     1   --> A_1  G_1 D_1   
     e( 20 - 20) =     14.74394  eV     1   --> A_1  G_1 D_1   
     e( 21 - 21) =     15.35118  eV     1   --> B_2  G_4 D_2'  
     e( 22 - 23) =     15.37372  eV     2   --> E    G_5 D_5   
     e( 24 - 24) =     15.70383  eV     1   --> B_1  G_3 D_2   
     e( 25 - 26) =     17.16167  eV     2   --> E    G_5 D_5   
     e( 27 - 27) =     17.45084  eV     1   --> A_1  G_1 D_1   
     e( 28 - 28) =     17.72449  eV     1   --> B_2  G_4 D_2'  
     e( 29 - 29) =     18.67929  eV     1   --> A_1  G_1 D_1   
     e( 30 - 31) =     18.81997  eV     2   --> E    G_5 D_5   
     e( 32 - 32) =     18.91043  eV     1   --> B_1  G_3 D_2   
     e( 33 - 33) =     19.26626  eV     1   --> B_1  G_3 D_2   
     e( 34 - 34) =     20.16919  eV     1   --> A_2  G_2 D_1'  
     e( 35 - 36) =     21.61514  eV     2   --> E    G_5 D_5   
     e( 37 - 37) =     21.86038  eV     1   --> A_1  G_1 D_1   
     e( 38 - 38) =     25.64236  eV     1   --> B_1  G_3 D_2   
     e( 39 - 39) =     26.79119  eV     1   --> A_1  G_1 D_1   
     e( 40 - 41) =     27.56809  eV     2   --> E    G_5 D_5   

 **************************************************************************

 **************************************************************************

                    xk=(   0.00000,   0.24167,   0.00000  )

     Band symmetry, C_4v (4mm)  point group:

     e(  1 -  1) =    -78.12267  eV     1   --> A_1  G_1 D_1   
     e(  2 -  2) =    -78.11116  eV     1   --> A_1  G_1 D_1   
     e(  3 -  3) =    -78.10936  eV     1   --> B_1  G_3 D_2   
     e(  4 -  5) =    -32.36225  eV     2   --> E    G_5 D_5   
     e(  6 -  6) =    -32.35319  eV     1   --> A_1  G_1 D_1   
     e(  7 -  8) =    -32.28682  eV     2   --> E    G_5 D_5   
     e(  9 -  9) =    -32.28362  eV     1   --> B_1  G_3 D_2   
     e( 10 - 10) =    -32.21369  eV     1   --> A_1  G_1 D_1   
     e( 11 - 12) =    -32.19893  eV     2   --> E    G_5 D_5   
     e( 13 - 13) =      2.86000  eV     1   --> B_1  G_3 D_2   
     e( 14 - 14) =      2.88697  eV     1   --> A_1  G_1 D_1   
     e( 15 - 15) =      2.89237  eV     1   --> B_2  G_4 D_2'  
     e( 16 - 17) =      2.90302  eV     2   --> E    G_5 D_5   
     e( 18 - 18) =      8.78709  eV     1   --> A_1  G_1 D_1   
     e( 19 - 19) =     13.84373  eV     1   --> A_1  G_1 D_1   
     e( 20 - 20) =     14.72456  eV     1   --> A_1  G_1 D_1   
     e( 21 - 21) =     15.35686  eV     1   --> B_2  G_4 D_2'  
     e( 22 - 23) =     15.37924  eV     2   --> E    G_5 D_5   
     e( 24 - 24) =     15.73376  eV     1   --> B_1  G_3 D_2   
     e( 25 - 26) =     17.13745  eV     2   --> E    G_5 D_5   
     e( 27 - 27) =     17.40954  eV     1   --> A_1  G_1 D_1   
     e( 28 - 28) =     17.71329  eV     1   --> B_2  G_4 D_2'  
     e( 29 - 29) =     18.64948  eV     1   --> A_1  G_1 D_1   
     e( 30 - 31) =     18.78432  eV     2   --> E    G_5 D_5   
     e( 32 - 32) =     18.89562  eV     1   --> B_1  G_3 D_2   
     e( 33 - 33) =     19.24513  eV     1   --> B_1  G_3 D_2   
     e( 34 - 34) =     20.16927  eV     1   --> A_2  G_2 D_1'  
     e( 35 - 36) =     21.70029  eV     2   --> E    G_5 D_5   
     e( 37 - 37) =     21.82844  eV     1   --> A_1  G_1 D_1   
     e( 38 - 38) =     25.63073  eV     1   --> B_1  G_3 D_2   
     e( 39 - 39) =     26.88060  eV     1   --> A_1  G_1 D_1   
     e( 40 - 41) =     27.51718  eV     2   --> E    G_5 D_5   

 **************************************************************************

 **************************************************************************

                    xk=(   0.00000,   0.25000,   0.00000  )

     Band symmetry, C_4v (4mm)  point group:

     e(  1 -  1) =    -78.12255  eV     1   --> A_1  G_1 D_1   
     e(  2 -  2) =    -78.11128  eV     1   --> A_1  G_1 D_1   
     e(  3 -  3) =    -78.10935  eV     1   --> B_1  G_3 D_2   
     e(  4 -  5) =    -32.36144  eV     2   --> E    G_5 D_5   
     e(  6 -  6) =    -32.35173  eV     1   --> A_1  G_1 D_1   
     e(  7 -  8) =    -32.28711  eV     2   --> E    G_5 D_5   
     e(  9 -  9) =    -32.28366  eV     1   --> B_1  G_3 D_2   
     e( 10 - 10) =    -32.21526  eV     1   --> A_1  G_1 D_1   
     e( 11 - 12) =    -32.19948  eV     2   --> E    G_5 D_5   
     e( 13 - 13) =      2.86093  eV     1   --> B_1  G_3 D_2   
     e( 14 - 14) =      2.88939  eV     1   --> A_1  G_1 D_1   
     e( 15 - 15) =      2.89256  eV     1   --> B_2  G_4 D_2'  
     e( 16 - 17) =      2.90380  eV     2   --> E    G_5 D_5   
     e( 18 - 18) =      8.82388  eV     1   --> A_1  G_1 D_1   
     e( 19 - 19) =     13.81995  eV     1   --> A_1  G_1 D_1   
     e( 20 - 20) =     14.70938  eV     1   --> A_1  G_1 D_1   
     e( 21 - 21) =     15.36260  eV     1   --> B_2  G_4 D_2'  
     e( 22 - 23) =     15.38458  eV     2   --> E    G_5 D_5   
     e( 24 - 24) =     15.76448  eV     1   --> B_1  G_3 D_2   
     e( 25 - 26) =     17.11464  eV     2   --> E    G_5 D_5   
     e( 27 - 27) =     17.37136  eV     1   --> A_1  G_1 D_1   
     e( 28 - 28) =     17.70202  eV     1   --> B_2  G_4 D_2'  
     e( 29 - 29) =     18.61899  eV     1   --> A_1  G_1 D_1   
     e( 30 - 31) =     18.74821  eV     2   --> E    G_5 D_5   
     e( 32 - 32) =     18.87856  eV     1   --> B_1  G_3 D_2   
     e( 33 - 33) =     19.22534  eV     1   --> B_1  G_3 D_2   
     e( 34 - 34) =     20.16934  eV     1   --> A_2  G_2 D_1'  
     e( 35 - 36) =     21.78637  eV     2   --> E    G_5 D_5   
     e( 37 - 37) =     21.79449  eV     1   --> A_1  G_1 D_1   
     e( 38 - 38) =     25.61902  eV     1   --> B_1  G_3 D_2   
     e( 39 - 39) =     26.96955  eV     1   --> A_1  G_1 D_1   
     e( 40 - 41) =     27.46322  eV     2   --> E    G_5 D_5   

 **************************************************************************

 **************************************************************************

                    xk=(   0.00000,   0.25833,   0.00000  )

     Band symmetry, C_4v (4mm)  point group:

     e(  1 -  1) =    -78.12243  eV     1   --> A_1  G_1 D_1   
     e(  2 -  2) =    -78.11140  eV     1   --> A_1  G_1 D_1   
     e(  3 -  3) =    -78.10935  eV     1   --> B_1  G_3 D_2   
     e(  4 -  5) =    -32.36061  eV     2   --> E    G_5 D_5   
     e(  6 -  6) =    -32.35024  eV     1   --> A_1  G_1 D_1   
     e(  7 -  8) =    -32.28741  eV     2   --> E    G_5 D_5   
     e(  9 -  9) =    -32.28370  eV     1   --> B_1  G_3 D_2   
     e( 10 - 10) =    -32.21686  eV     1   --> A_1  G_1 D_1   
     e( 11 - 12) =    -32.20002  eV     2   --> E    G_5 D_5   
     e( 13 - 13) =      2.86185  eV     1   --> B_1  G_3 D_2   
     e( 14 - 14) =      2.89180  eV     1   --> A_1  G_1 D_1   
     e( 15 - 15) =      2.89274  eV     1   --> B_2  G_4 D_2'  
     e( 16 - 17) =      2.90458  eV     2   --> E    G_5 D_5   
     e( 18 - 18) =      8.86156  eV     1   --> A_1  G_1 D_1   
     e( 19 - 19) =     13.79037  eV     1   --> A_1  G_1 D_1   
     e( 20 - 20) =     14.69871  eV     1   --> A_1  G_1 D_1   
     e( 21 - 21) =     15.36839  eV     1   --> B_2  G_4 D_2'  
     e( 22 - 23) =     15.38972  eV     2   --> E    G_5 D_5   
     e( 24 - 24) =     15.79596  eV     1   --> B_1  G_3 D_2   
     e( 25 - 26) =     17.09329  eV     2   --> E    G_5 D_5   
     e( 27 - 27) =     17.33617  eV     1   --> A_1  G_1 D_1   
     e( 28 - 28) =     17.69071  eV     1   --> B_2  G_4 D_2'  
     e( 29 - 29) =     18.58787  eV     1   --> A_1  G_1 D_1   
     e( 30 - 31) =     18.71173  eV     2   --> E    G_5 D_5   
     e( 32 - 32) =     18.85910  eV     1   --> B_1  G_3 D_2   
     e( 33 - 33) =     19.20710  eV     1   --> B_1  G_3 D_2   
     e( 34 - 34) =     20.16942  eV     1   --> A_2  G_2 D_1'  
     e( 35 - 35) =     21.75893  eV     1   --> A_1  G_1 D_1   
     e( 36 - 37) =     21.87331  eV     2   --> E    G_5 D_5   
     e( 38 - 38) =     25.60726  eV     1   --> B_1  G_3 D_2   
     e( 39 - 39) =     27.05735  eV     1   --> A_1  G_1 D_1   
     e( 40 - 41) =     27.40641  eV     2   --> E    G_5 D_5   

 **************************************************************************

 **************************************************************************

                    xk=(   0.00000,   0.26667,   0.00000  )

     Band symmetry, C_4v (4mm)  point group:

     e(  1 -  1) =    -78.12231  eV     1   --> A_1  G_1 D_1   
     e(  2 -  2) =    -78.11152  eV     1   --> A_1  G_1 D_1   
     e(  3 -  3) =    -78.10935  eV     1   --> B_1  G_3 D_2   
     e(  4 -  5) =    -32.35977  eV     2   --> E    G_5 D_5   
     e(  6 -  6) =    -32.34872  eV     1   --> A_1  G_1 D_1   
     e(  7 -  8) =    -32.28772  eV     2   --> E    G_5 D_5   
     e(  9 -  9) =    -32.28374  eV     1   --> B_1  G_3 D_2   
     e( 10 - 10) =    -32.21850  eV     1   --> A_1  G_1 D_1   
     e( 11 - 12) =    -32.20056  eV     2   --> E    G_5 D_5   
     e( 13 - 13) =      2.86277  eV     1   --> B_1  G_3 D_2   
     e( 14 - 14) =      2.89293  eV     1   --> B_2  G_4 D_2'  
     e( 15 - 15) =      2.89421  eV     1   --> A_1  G_1 D_1   
     e( 16 - 17) =      2.90536  eV     2   --> E    G_5 D_5   
     e( 18 - 18) =      8.90009  eV     1   --> A_1  G_1 D_1   
     e( 19 - 19) =     13.75509  eV     1   --> A_1  G_1 D_1   
     e( 20 - 20) =     14.69263  eV     1   --> A_1  G_1 D_1   
     e( 21 - 21) =     15.37422  eV     1   --> B_2  G_4 D_2'  
     e( 22 - 23) =     15.39463  eV     2   --> E    G_5 D_5   
     e( 24 - 24) =     15.82817  eV     1   --> B_1  G_3 D_2   
     e( 25 - 26) =     17.07343  eV     2   --> E    G_5 D_5   
     e( 27 - 27) =     17.30386  eV     1   --> A_1  G_1 D_1   
     e( 28 - 28) =     17.67939  eV     1   --> B_2  G_4 D_2'  
     e( 29 - 29) =     18.55617  eV     1   --> A_1  G_1 D_1   
     e( 30 - 31) =     18.67496  eV     2   --> E    G_5 D_5   
[...]

 **************************************************************************

                    xk=(   0.50000,   0.50000,   0.05833  )

     Band symmetry, C_4v (4mm)  point group:

     e(  1 -  3) =    -78.11438  eV     3   --> B_2  G_4 D_2'  
     e(  1 -  3) =    -78.11438  eV     3   --> E    G_5 D_5   
     e(  4 -  4) =    -32.37343  eV     1   --> A_1  G_1 D_1   
     e(  5 -  5) =    -32.33783  eV     1   --> B_2  G_4 D_2'  
     e(  6 -  7) =    -32.31036  eV     2   --> E    G_5 D_5   
     e(  8 -  9) =    -32.28255  eV     2   --> E    G_5 D_5   
     e( 10 - 10) =    -32.25266  eV     1   --> B_2  G_4 D_2'  
     e( 11 - 11) =    -32.22058  eV     1   --> B_1  G_3 D_2   
     e( 12 - 12) =    -32.18326  eV     1   --> A_2  G_2 D_1'  
     e( 13 - 13) =      2.85586  eV     1   --> B_2  G_4 D_2'  
     e( 14 - 14) =      2.91447  eV     1   --> A_1  G_1 D_1   
     e( 15 - 16) =      2.91685  eV     2   --> E    G_5 D_5   
     e( 17 - 17) =      2.99218  eV     1   --> B_1  G_3 D_2   
     e( 18 - 18) =     10.59189  eV     1   --> A_1  G_1 D_1   
     e( 19 - 20) =     13.90228  eV     2   --> E    G_5 D_5   
     e( 21 - 21) =     15.14404  eV     1   --> A_1  G_1 D_1   
     e( 22 - 22) =     15.73619  eV     1   --> B_2  G_4 D_2'  
     e( 23 - 24) =     16.05985  eV     2   --> E    G_5 D_5   
     e( 25 - 25) =     16.34302  eV     1   --> B_2  G_4 D_2'  
     e( 26 - 27) =     17.04377  eV     2   --> E    G_5 D_5   
     e( 28 - 28) =     17.56083  eV     1   --> A_2  G_2 D_1'  
     e( 29 - 30) =     17.77306  eV     2   --> E    G_5 D_5   
     e( 31 - 31) =     18.06052  eV     1   --> B_2  G_4 D_2'  
     e( 32 - 32) =     18.25932  eV     1   --> B_1  G_3 D_2   
     e( 33 - 33) =     18.52212  eV     1   --> A_2  G_2 D_1'  
     e( 34 - 34) =     18.65291  eV     1   --> A_1  G_1 D_1   
     e( 35 - 36) =     20.87298  eV     2   --> E    G_5 D_5   
     e( 37 - 37) =     24.31632  eV     1   --> A_1  G_1 D_1   
     e( 38 - 39) =     26.77099  eV     2   --> E    G_5 D_5   
     e( 40 - 40) =     27.15057  eV     1   --> A_1  G_1 D_1   
     e( 41 - 41) =     28.53008  eV     1   --> B_2  G_4 D_2'  

 **************************************************************************

 **************************************************************************

                    xk=(   0.50000,   0.50000,   0.05000  )

     Band symmetry, C_4v (4mm)  point group:

     e(  1 -  3) =    -78.11438  eV     3   --> B_2  G_4 D_2'  
     e(  1 -  3) =    -78.11438  eV     3   --> E    G_5 D_5   
     e(  4 -  4) =    -32.37344  eV     1   --> A_1  G_1 D_1   
     e(  5 -  5) =    -32.33668  eV     1   --> B_2  G_4 D_2'  
     e(  6 -  7) =    -32.30840  eV     2   --> E    G_5 D_5   
     e(  8 -  9) =    -32.28451  eV     2   --> E    G_5 D_5   
     e( 10 - 10) =    -32.25382  eV     1   --> B_2  G_4 D_2'  
     e( 11 - 11) =    -32.22058  eV     1   --> B_1  G_3 D_2   
     e( 12 - 12) =    -32.18326  eV     1   --> A_2  G_2 D_1'  
     e( 13 - 13) =      2.85593  eV     1   --> B_2  G_4 D_2'  
     e( 14 - 14) =      2.91392  eV     1   --> A_1  G_1 D_1   
     e( 15 - 16) =      2.91748  eV     2   --> E    G_5 D_5   
     e( 17 - 17) =      2.99233  eV     1   --> B_1  G_3 D_2   
     e( 18 - 18) =     10.59570  eV     1   --> A_1  G_1 D_1   
     e( 19 - 20) =     13.89500  eV     2   --> E    G_5 D_5   
     e( 21 - 21) =     15.13164  eV     1   --> A_1  G_1 D_1   
     e( 22 - 22) =     15.77663  eV     1   --> B_2  G_4 D_2'  
     e( 23 - 24) =     16.05887  eV     2   --> E    G_5 D_5   
     e( 25 - 25) =     16.29759  eV     1   --> B_2  G_4 D_2'  
     e( 26 - 27) =     17.05504  eV     2   --> E    G_5 D_5   
     e( 28 - 28) =     17.57997  eV     1   --> A_2  G_2 D_1'  
     e( 29 - 30) =     17.75683  eV     2   --> E    G_5 D_5   
     e( 31 - 31) =     18.05267  eV     1   --> B_2  G_4 D_2'  
     e( 32 - 32) =     18.25863  eV     1   --> B_1  G_3 D_2   
     e( 33 - 33) =     18.50010  eV     1   --> A_2  G_2 D_1'  
     e( 34 - 34) =     18.65299  eV     1   --> A_1  G_1 D_1   
     e( 35 - 36) =     20.87855  eV     2   --> E    G_5 D_5   
     e( 37 - 37) =     24.40868  eV     1   --> A_1  G_1 D_1   
     e( 38 - 39) =     26.88148  eV     2   --> E    G_5 D_5   
     e( 40 - 40) =     27.04874  eV     1   --> A_1  G_1 D_1   
     e( 41 - 41) =     28.63080  eV     1   --> B_2  G_4 D_2'  

 **************************************************************************

 **************************************************************************

                    xk=(   0.50000,   0.50000,   0.04167  )

     Band symmetry, C_4v (4mm)  point group:

     e(  1 -  3) =    -78.11438  eV     3   --> B_2  G_4 D_2'  
     e(  1 -  3) =    -78.11438  eV     3   --> E    G_5 D_5   
     e(  4 -  4) =    -32.37344  eV     1   --> A_1  G_1 D_1   
     e(  5 -  5) =    -32.33567  eV     1   --> B_2  G_4 D_2'  
     e(  6 -  7) =    -32.30643  eV     2   --> E    G_5 D_5   
     e(  8 -  9) =    -32.28648  eV     2   --> E    G_5 D_5   
     e( 10 - 10) =    -32.25483  eV     1   --> B_2  G_4 D_2'  
     e( 11 - 11) =    -32.22059  eV     1   --> B_1  G_3 D_2   
     e( 12 - 12) =    -32.18326  eV     1   --> A_2  G_2 D_1'  
     e( 13 - 13) =      2.85598  eV     1   --> B_2  G_4 D_2'  
     e( 14 - 14) =      2.91345  eV     1   --> A_1  G_1 D_1   
     e( 15 - 16) =      2.91802  eV     2   --> E    G_5 D_5   
     e( 17 - 17) =      2.99246  eV     1   --> B_1  G_3 D_2   
     e( 18 - 18) =     10.59895  eV     1   --> A_1  G_1 D_1   
     e( 19 - 20) =     13.88880  eV     2   --> E    G_5 D_5   
     e( 21 - 21) =     15.12111  eV     1   --> A_1  G_1 D_1   
     e( 22 - 22) =     15.81757  eV     1   --> B_2  G_4 D_2'  
     e( 23 - 24) =     16.05805  eV     2   --> E    G_5 D_5   
     e( 25 - 25) =     16.25239  eV     1   --> B_2  G_4 D_2'  
     e( 26 - 27) =     17.06514  eV     2   --> E    G_5 D_5   
     e( 28 - 28) =     17.59700  eV     1   --> A_2  G_2 D_1'  
     e( 29 - 30) =     17.74250  eV     2   --> E    G_5 D_5   
     e( 31 - 31) =     18.04603  eV     1   --> B_2  G_4 D_2'  
     e( 32 - 32) =     18.25804  eV     1   --> B_1  G_3 D_2   
     e( 33 - 33) =     18.48062  eV     1   --> A_2  G_2 D_1'  
     e( 34 - 34) =     18.65305  eV     1   --> A_1  G_1 D_1   
     e( 35 - 36) =     20.88323  eV     2   --> E    G_5 D_5   
     e( 37 - 37) =     24.49296  eV     1   --> A_1  G_1 D_1   
     e( 38 - 38) =     26.95643  eV     1   --> A_1  G_1 D_1   
     e( 39 - 40) =     26.98632  eV     2   --> E    G_5 D_5   
     e( 41 - 41) =     28.72249  eV     1   --> B_2  G_4 D_2'  

 **************************************************************************

 **************************************************************************

                    xk=(   0.50000,   0.50000,   0.03333  )

     Band symmetry, C_4v (4mm)  point group:

     e(  1 -  3) =    -78.11438  eV     3   --> B_2  G_4 D_2'  
     e(  1 -  3) =    -78.11438  eV     3   --> E    G_5 D_5   
     e(  4 -  4) =    -32.37344  eV     1   --> A_1  G_1 D_1   
     e(  5 -  5) =    -32.33482  eV     1   --> B_2  G_4 D_2'  
     e(  6 -  7) =    -32.30445  eV     2   --> E    G_5 D_5   
     e(  8 -  9) =    -32.28845  eV     2   --> E    G_5 D_5   
     e( 10 - 10) =    -32.25568  eV     1   --> B_2  G_4 D_2'  
     e( 11 - 11) =    -32.22059  eV     1   --> B_1  G_3 D_2   
     e( 12 - 12) =    -32.18326  eV     1   --> A_2  G_2 D_1'  
     e( 13 - 13) =      2.85603  eV     1   --> B_2  G_4 D_2'  
     e( 14 - 14) =      2.91307  eV     1   --> A_1  G_1 D_1   
     e( 15 - 16) =      2.91846  eV     2   --> E    G_5 D_5   
     e( 17 - 17) =      2.99256  eV     1   --> B_1  G_3 D_2   
     e( 18 - 18) =     10.60163  eV     1   --> A_1  G_1 D_1   
     e( 19 - 20) =     13.88372  eV     2   --> E    G_5 D_5   
     e( 21 - 21) =     15.11247  eV     1   --> A_1  G_1 D_1   
     e( 22 - 22) =     15.85896  eV     1   --> B_2  G_4 D_2'  
     e( 23 - 24) =     16.05739  eV     2   --> E    G_5 D_5   
     e( 25 - 25) =     16.20750  eV     1   --> B_2  G_4 D_2'  
     e( 26 - 27) =     17.07384  eV     2   --> E    G_5 D_5   
     e( 28 - 28) =     17.61157  eV     1   --> A_2  G_2 D_1'  
     e( 29 - 30) =     17.73033  eV     2   --> E    G_5 D_5   
     e( 31 - 31) =     18.04060  eV     1   --> B_2  G_4 D_2'  
     e( 32 - 32) =     18.25756  eV     1   --> B_1  G_3 D_2   
     e( 33 - 33) =     18.46403  eV     1   --> A_2  G_2 D_1'  
     e( 34 - 34) =     18.65309  eV     1   --> A_1  G_1 D_1   
     e( 35 - 36) =     20.88703  eV     2   --> E    G_5 D_5   
     e( 37 - 37) =     24.56705  eV     1   --> A_1  G_1 D_1   
     e( 38 - 38) =     26.87575  eV     1   --> A_1  G_1 D_1   
     e( 39 - 40) =     27.08272  eV     2   --> E    G_5 D_5   
     e( 41 - 41) =     28.80293  eV     1   --> B_2  G_4 D_2'  

 **************************************************************************

 **************************************************************************

                    xk=(   0.50000,   0.50000,   0.02500  )

     Band symmetry, C_4v (4mm)  point group:

     e(  1 -  3) =    -78.11438  eV     3   --> B_2  G_4 D_2'  
     e(  1 -  3) =    -78.11438  eV     3   --> E    G_5 D_5   
     e(  4 -  4) =    -32.37345  eV     1   --> A_1  G_1 D_1   
     e(  5 -  5) =    -32.33415  eV     1   --> B_2  G_4 D_2'  
     e(  6 -  7) =    -32.30247  eV     2   --> E    G_5 D_5   
     e(  8 -  9) =    -32.29043  eV     2   --> E    G_5 D_5   
     e( 10 - 10) =    -32.25635  eV     1   --> B_2  G_4 D_2'  
     e( 11 - 11) =    -32.22059  eV     1   --> B_1  G_3 D_2   
     e( 12 - 12) =    -32.18327  eV     1   --> A_2  G_2 D_1'  
     e( 13 - 13) =      2.85607  eV     1   --> B_2  G_4 D_2'  
     e( 14 - 14) =      2.91277  eV     1   --> A_1  G_1 D_1   
     e( 15 - 16) =      2.91880  eV     2   --> E    G_5 D_5   
     e( 17 - 17) =      2.99265  eV     1   --> B_1  G_3 D_2   
     e( 18 - 18) =     10.60372  eV     1   --> A_1  G_1 D_1   
     e( 19 - 20) =     13.87975  eV     2   --> E    G_5 D_5   
     e( 21 - 21) =     15.10574  eV     1   --> A_1  G_1 D_1   
     e( 22 - 22) =     15.90076  eV     1   --> B_2  G_4 D_2'  
     e( 23 - 24) =     16.05688  eV     2   --> E    G_5 D_5   
     e( 25 - 25) =     16.16296  eV     1   --> B_2  G_4 D_2'  
     e( 26 - 27) =     17.08090  eV     2   --> E    G_5 D_5   
     e( 28 - 28) =     17.62335  eV     1   --> A_2  G_2 D_1'  
     e( 29 - 30) =     17.72056  eV     2   --> E    G_5 D_5   
     e( 31 - 31) =     18.03639  eV     1   --> B_2  G_4 D_2'  
     e( 32 - 32) =     18.25718  eV     1   --> B_1  G_3 D_2   
     e( 33 - 33) =     18.45068  eV     1   --> A_2  G_2 D_1'  
     e( 34 - 34) =     18.65313  eV     1   --> A_1  G_1 D_1   
     e( 35 - 36) =     20.88998  eV     2   --> E    G_5 D_5   
     e( 37 - 37) =     24.62854  eV     1   --> A_1  G_1 D_1   
     e( 38 - 38) =     26.80913  eV     1   --> A_1  G_1 D_1   
     e( 39 - 40) =     27.16679  eV     2   --> E    G_5 D_5   
     e( 41 - 41) =     28.75234  eV     1   -->   ?

 **************************************************************************

 **************************************************************************

                    xk=(   0.50000,   0.50000,   0.01667  )

     Band symmetry, C_4v (4mm)  point group:

     e(  1 -  3) =    -78.11438  eV     3   --> B_2  G_4 D_2'  
     e(  1 -  3) =    -78.11438  eV     3   --> E    G_5 D_5   
     e(  4 -  4) =    -32.37345  eV     1   --> A_1  G_1 D_1   
     e(  5 -  5) =    -32.33366  eV     1   --> B_2  G_4 D_2'  
     e(  6 -  7) =    -32.30050  eV     2   --> E    G_5 D_5   
     e(  8 -  9) =    -32.29240  eV     2   --> E    G_5 D_5   
     e( 10 - 10) =    -32.25684  eV     1   --> B_2  G_4 D_2'  
     e( 11 - 11) =    -32.22059  eV     1   --> B_1  G_3 D_2   
     e( 12 - 12) =    -32.18327  eV     1   --> A_2  G_2 D_1'  
     e( 13 - 13) =      2.85609  eV     1   --> B_2  G_4 D_2'  
     e( 14 - 14) =      2.91256  eV     1   --> A_1  G_1 D_1   
     e( 15 - 16) =      2.91905  eV     2   --> E    G_5 D_5   
     e( 17 - 17) =      2.99271  eV     1   --> B_1  G_3 D_2   
     e( 18 - 18) =     10.60522  eV     1   --> A_1  G_1 D_1   
     e( 19 - 20) =     13.87690  eV     2   --> E    G_5 D_5   
     e( 21 - 21) =     15.10093  eV     1   --> A_1  G_1 D_1   
     e( 22 - 22) =     15.94284  eV     1   --> B_2  G_4 D_2'  
     e( 23 - 24) =     16.05653  eV     2   --> E    G_5 D_5   
     e( 25 - 25) =     16.11892  eV     1   --> B_2  G_4 D_2'  
     e( 26 - 27) =     17.08612  eV     2   --> E    G_5 D_5   
     e( 28 - 28) =     17.63202  eV     1   --> A_2  G_2 D_1'  
     e( 29 - 30) =     17.71340  eV     2   --> E    G_5 D_5   
     e( 31 - 31) =     18.03337  eV     1   --> B_2  G_4 D_2'  
     e( 32 - 32) =     18.25691  eV     1   --> B_1  G_3 D_2   
     e( 33 - 33) =     18.44089  eV     1   --> A_2  G_2 D_1'  
     e( 34 - 34) =     18.65315  eV     1   --> A_1  G_1 D_1   
     e( 35 - 36) =     20.89208  eV     2   --> E    G_5 D_5   
     e( 37 - 37) =     24.67492  eV     1   --> A_1  G_1 D_1   
     e( 38 - 38) =     26.75908  eV     1   --> A_1  G_1 D_1   
     e( 39 - 40) =     27.23346  eV     2   --> E    G_5 D_5   
     e( 41 - 41) =     28.68058  eV     1   -->   ?

 **************************************************************************

 **************************************************************************

                    xk=(   0.50000,   0.50000,   0.00833  )

     Band symmetry, C_4v (4mm)  point group:

     e(  1 -  3) =    -78.11438  eV     3   --> B_2  G_4 D_2'  
     e(  1 -  3) =    -78.11438  eV     3   --> E    G_5 D_5   
     e(  4 -  4) =    -32.37345  eV     1   --> A_1  G_1 D_1   
     e(  5 -  5) =    -32.33336  eV     1   --> B_2  G_4 D_2'  
     e(  6 -  7) =    -32.29856  eV     2   --> E    G_5 D_5   
     e(  8 -  9) =    -32.29434  eV     2   --> E    G_5 D_5   
     e( 10 - 10) =    -32.25714  eV     1   --> B_2  G_4 D_2'  
     e( 11 - 11) =    -32.22059  eV     1   --> B_1  G_3 D_2   
     e( 12 - 12) =    -32.18327  eV     1   --> A_2  G_2 D_1'  
     e( 13 - 13) =      2.85611  eV     1   --> B_2  G_4 D_2'  
     e( 14 - 14) =      2.91243  eV     1   --> A_1  G_1 D_1   
     e( 15 - 16) =      2.91920  eV     2   --> E    G_5 D_5   
     e( 17 - 17) =      2.99274  eV     1   --> B_1  G_3 D_2   
     e( 18 - 18) =     10.60613  eV     1   --> A_1  G_1 D_1   
     e( 19 - 20) =     13.87519  eV     2   --> E    G_5 D_5   
     e( 21 - 21) =     15.09804  eV     1   --> A_1  G_1 D_1   
     e( 22 - 22) =     15.98468  eV     1   --> B_2  G_4 D_2'  
     e( 23 - 24) =     16.05632  eV     2   --> E    G_5 D_5   
     e( 25 - 25) =     16.07591  eV     1   --> B_2  G_4 D_2'  
     e( 26 - 27) =     17.08932  eV     2   --> E    G_5 D_5   
     e( 28 - 28) =     17.63733  eV     1   --> A_2  G_2 D_1'  
     e( 29 - 30) =     17.70903  eV     2   --> E    G_5 D_5   
     e( 31 - 31) =     18.03157  eV     1   --> B_2  G_4 D_2'  
     e( 32 - 32) =     18.25675  eV     1   --> B_1  G_3 D_2   
     e( 33 - 33) =     18.43490  eV     1   --> A_2  G_2 D_1'  
     e( 34 - 34) =     18.65316  eV     1   --> A_1  G_1 D_1   
     e( 35 - 36) =     20.89334  eV     2   --> E    G_5 D_5   
     e( 37 - 37) =     24.70386  eV     1   --> A_1  G_1 D_1   
     e( 38 - 38) =     26.72793  eV     1   --> A_1  G_1 D_1   
     e( 39 - 40) =     27.27691  eV     2   --> E    G_5 D_5   
     e( 41 - 41) =     28.63408  eV     1   -->   ?

 **************************************************************************

 **************************************************************************

                    xk=(   0.50000,   0.50000,   0.00000  )

     point group D_4h(4/mmm)
     there are 10 classes
     the character table:

       E     2C4   C2    2C2'  2C2'' i     2S4   s_h   2s_v  2s_d 
A_1g   1.00  1.00  1.00  1.00  1.00  1.00  1.00  1.00  1.00  1.00
A_2g   1.00  1.00  1.00 -1.00 -1.00  1.00  1.00  1.00 -1.00 -1.00
B_1g   1.00 -1.00  1.00  1.00 -1.00  1.00 -1.00  1.00  1.00 -1.00
B_2g   1.00 -1.00  1.00 -1.00  1.00  1.00 -1.00  1.00 -1.00  1.00
E_g    2.00  0.00 -2.00  0.00  0.00  2.00  0.00 -2.00  0.00  0.00
A_1u   1.00  1.00  1.00  1.00  1.00 -1.00 -1.00 -1.00 -1.00 -1.00
A_2u   1.00  1.00  1.00 -1.00 -1.00 -1.00 -1.00 -1.00  1.00  1.00
B_1u   1.00 -1.00  1.00  1.00 -1.00 -1.00  1.00 -1.00 -1.00  1.00
B_2u   1.00 -1.00  1.00 -1.00  1.00 -1.00  1.00 -1.00  1.00 -1.00
E_u    2.00  0.00 -2.00  0.00  0.00 -2.00  0.00  2.00  0.00  0.00

     the symmetry operations in each class and the name of the first element:

     E        1
                                                                 
     2C4      7    8
                                                                 
     C2       2
                                                                 
     2C2'     3    4
                                                                 
     2C2''    5    6
                                                                 
     i        9
                                                                 
     2S4     15   16
                                                                 
     s_h     10
                                                                 
     2s_v    11   12
                                                                 
     2s_d    13   14
                                                                 

     Band symmetry, D_4h(4/mmm) point group:

     e(  1 -  3) =    -78.11438  eV     3   --> B_2g X_3  M_3  
     e(  1 -  3) =    -78.11438  eV     3   --> E_u  X_5' M_5' 
     e(  4 -  4) =    -32.37345  eV     1   --> A_1g X_1  M_1  
     e(  5 -  5) =    -32.33326  eV     1   --> B_2g X_3  M_3  
     e(  6 -  7) =    -32.29712  eV     2   --> E_u  X_5' M_5' 
     e(  8 -  9) =    -32.29577  eV     2   --> E_g  X_5  M_5  
     e( 10 - 10) =    -32.25724  eV     1   --> B_1u X_2' M_2' 
     e( 11 - 11) =    -32.22059  eV     1   --> B_1g X_2  M_2  
     e( 12 - 12) =    -32.18326  eV     1   --> A_2g X_4  M_4  
     e( 13 - 13) =      2.85611  eV     1   --> B_2g X_3  M_3  
     e( 14 - 14) =      2.91238  eV     1   --> A_1g X_1  M_1  
     e( 15 - 16) =      2.91925  eV     2   --> E_g  X_5  M_5  
     e( 17 - 17) =      2.99275  eV     1   --> B_1g X_2  M_2  
     e( 18 - 18) =     10.60643  eV     1   --> A_1g X_1  M_1  
     e( 19 - 20) =     13.87462  eV     2   --> E_u  X_5' M_5' 
     e( 21 - 21) =     15.09707  eV     1   --> A_2u X_4' M_4' 
     e( 22 - 22) =     16.01635  eV     1   --> B_2g X_3  M_3  
     e( 23 - 23) =     16.04385  eV     1   --> B_1u X_2' M_2' 
     e( 24 - 25) =     16.05624  eV     2   --> E_u  X_5' M_5' 
     e( 26 - 27) =     17.09040  eV     2   --> E_g  X_5  M_5  
     e( 28 - 28) =     17.63912  eV     1   --> A_2g X_4  M_4  
     e( 29 - 30) =     17.70757  eV     2   --> E_u  X_5' M_5' 
     e( 31 - 31) =     18.03097  eV     1   --> B_2g X_3  M_3  
     e( 32 - 32) =     18.25669  eV     1   --> B_2u X_3' M_3' 
     e( 33 - 33) =     18.43288  eV     1   --> A_1u X_1' M_1' 
     e( 34 - 34) =     18.65316  eV     1   --> A_1g X_1  M_1  
     e( 35 - 36) =     20.89376  eV     2   --> E_u  X_5' M_5' 
     e( 37 - 37) =     24.71371  eV     1   --> A_1g X_1  M_1  
     e( 38 - 38) =     26.71735  eV     1   --> A_2u X_4' M_4' 
     e( 39 - 40) =     27.29208  eV     2   --> E_u  X_5' M_5' 
     e( 41 - 41) =     28.61789  eV     1   -->   ?

 **************************************************************************
 
     BANDS        :   1m15.80s CPU   1m17.41s WALL

 
   This run was terminated on:  19:18: 3  29Nov2020            

=------------------------------------------------------------------------------=
   JOB DONE.
=------------------------------------------------------------------------------=
