mpijob CMD    : mpirun -f /tmp/mpiexec.params.k050801.22712
mpijob PARAMS : -d
        /home/k0508/k050801/research/dft/qeirreps/v2/qeirreps/reference/PbPt3_nonsoc
        r1i0n10 24 omplace -nt 1
        "/home/k0508/k050801/research/dft/qe-6.2/bin/bands.x"

SGI MPT Placement option
--------------------------
omplace -nt 1

Node   MPI
------------
r1i0n10 24


     Program BANDS v.6.2 (svn rev. 13949:13950) starts on 16Apr2020 at 13:36: 7 

     This program is part of the open-source Quantum ESPRESSO suite
     for quantum simulation of materials; please cite
         "P. Giannozzi et al., J. Phys.:Condens. Matter 21 395502 (2009);
         "P. Giannozzi et al., J. Phys.:Condens. Matter 29 465901 (2017);
          URL http://www.quantum-espresso.org", 
     in publications or presentations arising from this work. More details at
     http://www.quantum-espresso.org/quote

     Parallel version (MPI), running on    24 processors

     MPI processes distributed on     1 nodes
     R & G space division:  proc/nbgrp/npool/nimage =      24

     Reading data from directory:
     /work/k0508/k050801/band/PbPt3_ns/PbPt3.save

     IMPORTANT: XC functional enforced from input :
     Exchange-correlation      = PBE ( 1  4  3  4 0 0)
     Any further DFT definition will be discarded
     Please, verify this is what you really want

 
     Parallelization info
     --------------------
     sticks:   dense  smooth     PW     G-vecs:    dense   smooth      PW
     Min          80      80     23                 2674     2674     407
     Max          81      81     24                 2679     2679     410
     Sum        1941    1941    553                64229    64229    9795
 
     high-symmetry point:  0.0000 0.0000 0.0000   x coordinate   0.0000
     high-symmetry point:  0.0000 0.5000 0.0000   x coordinate   0.5000
     high-symmetry point:  0.5000 0.5000 0.0000   x coordinate   1.0000
     high-symmetry point:  0.0000 0.0000 0.0000   x coordinate   1.7071
     high-symmetry point:  0.5000 0.5000 0.5000   x coordinate   2.5731
     high-symmetry point:  0.0000 0.5000 0.0000   x coordinate   3.2802
     high-symmetry point:  0.5000 0.5000 0.5000   x coordinate   3.2802
     high-symmetry point:  0.5000 0.5000 0.0000   x coordinate   3.7802

     Plottable bands (eV) written to file PbPt3.band.gnu
     Bands written to file PbPt3.band

 **************************************************************************

                    xk=(   0.00000,   0.00000,   0.00000  )

     point group O_h (m-3m) 
     there are 10 classes
     the character table:

       E     8C3   3C2   6C4   6C2'  i     8S6   3s_h  6S4   6s_d 
A_1g   1.00  1.00  1.00  1.00  1.00  1.00  1.00  1.00  1.00  1.00
A_2g   1.00  1.00  1.00 -1.00 -1.00  1.00  1.00  1.00 -1.00 -1.00
E_g    2.00 -1.00  2.00  0.00  0.00  2.00 -1.00  2.00  0.00  0.00
T_1g   3.00  0.00 -1.00  1.00 -1.00  3.00  0.00 -1.00  1.00 -1.00
T_2g   3.00  0.00 -1.00 -1.00  1.00  3.00  0.00 -1.00 -1.00  1.00
A_1u   1.00  1.00  1.00  1.00  1.00 -1.00 -1.00 -1.00 -1.00 -1.00
A_2u   1.00  1.00  1.00 -1.00 -1.00 -1.00 -1.00 -1.00  1.00  1.00
E_u    2.00 -1.00  2.00  0.00  0.00 -2.00  1.00 -2.00  0.00  0.00
T_1u   3.00  0.00 -1.00  1.00 -1.00 -3.00  0.00  1.00 -1.00  1.00
T_2u   3.00  0.00 -1.00 -1.00  1.00 -3.00  0.00  1.00  1.00 -1.00

     the symmetry operations in each class and the name of the first element:

     E        1
                                                                 
     8C3     17   19   20   18   24   21   22   23
                                                                 
     3C2      2    4    3
                                                                 
     6C4      7    8   15   16   12   11
                                                                 
     6C2'     5    6   14   13   10    9
                                                                 
     i       25
                                                                 
     8S6     41   43   44   42   48   45   46   47
                                                                 
     3s_h    26   28   27
                                                                 
     6S4     31   32   39   40   36   35
                                                                 
     6s_d    29   30   38   37   34   33
                                                                 

     Band symmetry, O_h (m-3m)  point group:

     e(  1 -  1) =    -78.12419  eV     1   --> A_1g G_1   G_1+
     e(  2 -  3) =    -78.10907  eV     2   --> E_g  G_12  G_3+
     e(  4 -  6) =    -32.37519  eV     3   --> T_1u G_15  G_4-
     e(  7 -  9) =    -32.28261  eV     3   --> T_2u G_25  G_5-
     e( 10 - 12) =    -32.18923  eV     3   --> T_1u G_15  G_4-
     e( 13 - 14) =      2.84318  eV     2   --> E_g  G_12  G_3+
     e( 15 - 17) =      2.88886  eV     3   --> T_2g G_25' G_5+
     e( 18 - 18) =      8.23332  eV     1   --> A_1g G_1   G_1+
     e( 19 - 19) =     13.73288  eV     1   --> A_1g G_1   G_1+
     e( 20 - 22) =     15.26046  eV     3   --> T_2g G_25' G_5+
     e( 23 - 24) =     15.27125  eV     2   --> E_g  G_12  G_3+
     e( 25 - 27) =     17.91165  eV     3   --> T_2g G_25' G_5+
     e( 28 - 29) =     19.00316  eV     2   --> E_g  G_12  G_3+
     e( 30 - 32) =     19.29083  eV     3   --> T_1u G_15  G_4-
     e( 33 - 33) =     19.69562  eV     1   --> A_2g G_2   G_2+
     e( 34 - 36) =     20.16808  eV     3   --> T_1g G_15' G_4+
     e( 37 - 37) =     21.29652  eV     1   --> A_1g G_1   G_1+
     e( 38 - 39) =     25.83284  eV     2   --> E_g  G_12  G_3+
     e( 40 - 41) =     27.84436  eV     2   -->   ?

 **************************************************************************

 **************************************************************************

                    xk=(   0.00000,   0.00833,   0.00000  )

     point group C_4v (4mm) 
     there are  5 classes
     the character table:

       E     2C4   C2    2s_v  2s_d 
A_1    1.00  1.00  1.00  1.00  1.00
A_2    1.00  1.00  1.00 -1.00 -1.00
B_1    1.00 -1.00  1.00  1.00 -1.00
B_2    1.00 -1.00  1.00 -1.00  1.00
E      2.00  0.00 -2.00  0.00  0.00

     the symmetry operations in each class and the name of the first element:

     E        1
                                                                 
     2C4      3    4
                                                                 
     C2       2
                                                                 
     2s_v     5    6
                                                                 
     2s_d     7    8
                                                                 

     Band symmetry, C_4v (4mm)  point group:

     e(  1 -  1) =    -78.12419  eV     1   --> A_1  G_1 D_1   
     e(  2 -  3) =    -78.10908  eV     2   --> A_1  G_1 D_1   
     e(  2 -  3) =    -78.10908  eV     2   --> B_1  G_3 D_2   
     e(  4 -  6) =    -32.37517  eV     3   --> A_1  G_1 D_1   
     e(  4 -  6) =    -32.37517  eV     3   --> E    G_5 D_5   
     e(  7 -  9) =    -32.28261  eV     3   --> B_1  G_3 D_2   
     e(  7 -  9) =    -32.28261  eV     3   --> E    G_5 D_5   
     e( 10 - 12) =    -32.18926  eV     3   --> A_1  G_1 D_1   
     e( 10 - 12) =    -32.18926  eV     3   --> E    G_5 D_5   
     e( 13 - 14) =      2.84320  eV     2   --> A_1  G_1 D_1   
     e( 13 - 14) =      2.84320  eV     2   --> B_1  G_3 D_2   
     e( 15 - 17) =      2.88886  eV     3   --> B_2  G_4 D_2'  
     e( 15 - 17) =      2.88886  eV     3   --> E    G_5 D_5   
     e( 18 - 18) =      8.23400  eV     1   --> A_1  G_1 D_1   
     e( 19 - 19) =     13.73331  eV     1   --> A_1  G_1 D_1   
     e( 20 - 22) =     15.26059  eV     3   --> B_2  G_4 D_2'  
     e( 20 - 22) =     15.26059  eV     3   --> E    G_5 D_5   
     e( 23 - 23) =     15.27059  eV     1   --> A_1  G_1 D_1   
     e( 24 - 24) =     15.27183  eV     1   --> B_1  G_3 D_2   
     e( 25 - 26) =     17.90957  eV     2   --> E    G_5 D_5   
     e( 27 - 27) =     17.91137  eV     1   --> B_2  G_4 D_2'  
     e( 28 - 28) =     19.00072  eV     1   --> A_1  G_1 D_1   
     e( 29 - 29) =     19.00311  eV     1   --> B_1  G_3 D_2   
     e( 30 - 30) =     19.28615  eV     1   --> A_1  G_1 D_1   
     e( 31 - 32) =     19.29092  eV     2   --> E    G_5 D_5   
     e( 33 - 33) =     19.69498  eV     1   --> B_1  G_3 D_2   
     e( 34 - 34) =     20.16809  eV     1   --> A_2  G_2 D_1'  
     e( 35 - 36) =     20.17017  eV     2   --> E    G_5 D_5   
     e( 37 - 37) =     21.30206  eV     1   --> A_1  G_1 D_1   
     e( 38 - 38) =     25.83204  eV     1   --> A_1  G_1 D_1   
     e( 39 - 39) =     25.83257  eV     1   --> B_1  G_3 D_2   
     e( 40 - 41) =     27.84495  eV     2   --> E    G_5 D_5   

 **************************************************************************

 **************************************************************************

                    xk=(   0.00000,   0.01667,   0.00000  )

     Band symmetry, C_4v (4mm)  point group:

     e(  1 -  1) =    -78.12418  eV     1   --> A_1  G_1 D_1   
     e(  2 -  3) =    -78.10908  eV     2   --> A_1  G_1 D_1   
     e(  2 -  3) =    -78.10908  eV     2   --> B_1  G_3 D_2   
     e(  4 -  6) =    -32.37512  eV     3   --> A_1  G_1 D_1   
     e(  4 -  6) =    -32.37512  eV     3   --> E    G_5 D_5   
     e(  7 -  9) =    -32.28263  eV     3   --> B_1  G_3 D_2   
     e(  7 -  9) =    -32.28263  eV     3   --> E    G_5 D_5   
     e( 10 - 12) =    -32.18935  eV     3   --> A_1  G_1 D_1   
     e( 10 - 12) =    -32.18935  eV     3   --> E    G_5 D_5   
     e( 13 - 13) =      2.84327  eV     1   --> B_1  G_3 D_2   
     e( 14 - 14) =      2.84343  eV     1   --> A_1  G_1 D_1   
     e( 15 - 17) =      2.88888  eV     3   --> B_2  G_4 D_2'  
     e( 15 - 17) =      2.88888  eV     3   --> E    G_5 D_5   
     e( 18 - 18) =      8.23606  eV     1   --> A_1  G_1 D_1   
     e( 19 - 19) =     13.73459  eV     1   --> A_1  G_1 D_1   
     e( 20 - 20) =     15.26099  eV     1   --> B_2  G_4 D_2'  
     e( 21 - 22) =     15.26122  eV     2   --> E    G_5 D_5   
     e( 23 - 23) =     15.26858  eV     1   --> A_1  G_1 D_1   
     e( 24 - 24) =     15.27355  eV     1   --> B_1  G_3 D_2   
     e( 25 - 26) =     17.90340  eV     2   --> E    G_5 D_5   
     e( 27 - 27) =     17.91053  eV     1   --> B_2  G_4 D_2'  
     e( 28 - 28) =     18.99318  eV     1   --> A_1  G_1 D_1   
     e( 29 - 29) =     19.00296  eV     1   --> B_1  G_3 D_2   
     e( 30 - 30) =     19.27264  eV     1   --> A_1  G_1 D_1   
     e( 31 - 32) =     19.29116  eV     2   --> E    G_5 D_5   
     e( 33 - 33) =     19.69306  eV     1   --> B_1  G_3 D_2   
     e( 34 - 34) =     20.16809  eV     1   --> A_2  G_2 D_1'  
     e( 35 - 36) =     20.17645  eV     2   --> E    G_5 D_5   
     e( 37 - 37) =     21.31838  eV     1   --> A_1  G_1 D_1   
     e( 38 - 38) =     25.82972  eV     1   --> A_1  G_1 D_1   
     e( 39 - 39) =     25.83174  eV     1   --> B_1  G_3 D_2   
     e( 40 - 41) =     27.84670  eV     2   --> E    G_5 D_5   

 **************************************************************************

 **************************************************************************

                    xk=(   0.00000,   0.02500,   0.00000  )

     Band symmetry, C_4v (4mm)  point group:

     e(  1 -  1) =    -78.12417  eV     1   --> A_1  G_1 D_1   
     e(  2 -  3) =    -78.10910  eV     2   --> A_1  G_1 D_1   
     e(  2 -  3) =    -78.10910  eV     2   --> B_1  G_3 D_2   
     e(  4 -  6) =    -32.37503  eV     3   --> A_1  G_1 D_1   
     e(  4 -  6) =    -32.37503  eV     3   --> E    G_5 D_5   
     e(  7 -  9) =    -32.28265  eV     3   --> B_1  G_3 D_2   
     e(  7 -  9) =    -32.28265  eV     3   --> E    G_5 D_5   
     e( 10 - 10) =    -32.18950  eV     1   --> A_1  G_1 D_1   
     e( 11 - 12) =    -32.18934  eV     2   --> E    G_5 D_5   
     e( 13 - 13) =      2.84339  eV     1   --> B_1  G_3 D_2   
     e( 14 - 14) =      2.84374  eV     1   --> A_1  G_1 D_1   
     e( 15 - 15) =      2.88890  eV     1   --> B_2  G_4 D_2'  
     e( 16 - 17) =      2.88904  eV     2   --> E    G_5 D_5   
     e( 18 - 18) =      8.23949  eV     1   --> A_1  G_1 D_1   
     e( 19 - 19) =     13.73672  eV     1   --> A_1  G_1 D_1   
     e( 20 - 20) =     15.26164  eV     1   --> B_2  G_4 D_2'  
     e( 21 - 22) =     15.26216  eV     2   --> E    G_5 D_5   
     e( 23 - 23) =     15.26524  eV     1   --> A_1  G_1 D_1   
     e( 24 - 24) =     15.27642  eV     1   --> B_1  G_3 D_2   
     e( 25 - 26) =     17.89326  eV     2   --> E    G_5 D_5   
     e( 27 - 27) =     17.90913  eV     1   --> B_2  G_4 D_2'  
     e( 28 - 28) =     18.97981  eV     1   --> A_1  G_1 D_1   
     e( 29 - 29) =     19.00272  eV     1   --> B_1  G_3 D_2   
     e( 30 - 30) =     19.25181  eV     1   --> A_1  G_1 D_1   
     e( 31 - 32) =     19.29136  eV     2   --> E    G_5 D_5   
     e( 33 - 33) =     19.68986  eV     1   --> B_1  G_3 D_2   
     e( 34 - 34) =     20.16810  eV     1   --> A_2  G_2 D_1'  
     e( 35 - 36) =     20.18696  eV     2   --> E    G_5 D_5   
     e( 37 - 37) =     21.34463  eV     1   --> A_1  G_1 D_1   
     e( 38 - 38) =     25.82613  eV     1   --> A_1  G_1 D_1   
     e( 39 - 39) =     25.83036  eV     1   --> B_1  G_3 D_2   
     e( 40 - 41) =     27.84955  eV     2   --> E    G_5 D_5   

 **************************************************************************

 **************************************************************************

                    xk=(   0.00000,   0.03333,   0.00000  )

     Band symmetry, C_4v (4mm)  point group:

     e(  1 -  1) =    -78.12416  eV     1   --> A_1  G_1 D_1   
     e(  2 -  3) =    -78.10911  eV     2   --> A_1  G_1 D_1   
     e(  2 -  3) =    -78.10911  eV     2   --> B_1  G_3 D_2   
     e(  4 -  5) =    -32.37491  eV     2   --> E    G_5 D_5   
     e(  6 -  6) =    -32.37474  eV     1   --> A_1  G_1 D_1   
     e(  7 -  9) =    -32.28268  eV     3   --> B_1  G_3 D_2   
     e(  7 -  9) =    -32.28268  eV     3   --> E    G_5 D_5   
     e( 10 - 10) =    -32.18972  eV     1   --> A_1  G_1 D_1   
     e( 11 - 12) =    -32.18944  eV     2   --> E    G_5 D_5   
     e( 13 - 13) =      2.84356  eV     1   --> B_1  G_3 D_2   
     e( 14 - 14) =      2.84418  eV     1   --> A_1  G_1 D_1   
     e( 15 - 15) =      2.88894  eV     1   --> B_2  G_4 D_2'  
     e( 16 - 17) =      2.88918  eV     2   --> E    G_5 D_5   
     e( 18 - 18) =      8.24428  eV     1   --> A_1  G_1 D_1   
     e( 19 - 19) =     13.73969  eV     1   --> A_1  G_1 D_1   
     e( 20 - 20) =     15.26052  eV     1   --> A_1  G_1 D_1   
     e( 21 - 21) =     15.26255  eV     1   --> B_2  G_4 D_2'  
     e( 22 - 23) =     15.26348  eV     2   --> E    G_5 D_5   
     e( 24 - 24) =     15.28043  eV     1   --> B_1  G_3 D_2   
     e( 25 - 26) =     17.87936  eV     2   --> E    G_5 D_5   
     e( 27 - 27) =     17.90718  eV     1   --> B_2  G_4 D_2'  
     e( 28 - 28) =     18.95941  eV     1   --> A_1  G_1 D_1   
     e( 29 - 29) =     19.00238  eV     1   --> B_1  G_3 D_2   
     e( 30 - 30) =     19.22600  eV     1   --> A_1  G_1 D_1   
     e( 31 - 32) =     19.29130  eV     2   --> E    G_5 D_5   
     e( 33 - 33) =     19.68537  eV     1   --> B_1  G_3 D_2   
     e( 34 - 34) =     20.16812  eV     1   --> A_2  G_2 D_1'  
     e( 35 - 36) =     20.20176  eV     2   --> E    G_5 D_5   
     e( 37 - 37) =     21.37954  eV     1   --> A_1  G_1 D_1   
     e( 38 - 38) =     25.82166  eV     1   --> A_1  G_1 D_1   
     e( 39 - 39) =     25.82842  eV     1   --> B_1  G_3 D_2   
     e( 40 - 41) =     27.85342  eV     2   --> E    G_5 D_5   

 **************************************************************************

 **************************************************************************

                    xk=(   0.00000,   0.04167,   0.00000  )

     Band symmetry, C_4v (4mm)  point group:

     e(  1 -  1) =    -78.12413  eV     1   --> A_1  G_1 D_1   
     e(  2 -  3) =    -78.10913  eV     2   --> A_1  G_1 D_1   
     e(  2 -  3) =    -78.10913  eV     2   --> B_1  G_3 D_2   
     e(  4 -  5) =    -32.37476  eV     2   --> E    G_5 D_5   
     e(  6 -  6) =    -32.37449  eV     1   --> A_1  G_1 D_1   
     e(  7 -  9) =    -32.28272  eV     3   --> B_1  G_3 D_2   
     e(  7 -  9) =    -32.28272  eV     3   --> E    G_5 D_5   
     e( 10 - 10) =    -32.19000  eV     1   --> A_1  G_1 D_1   
     e( 11 - 12) =    -32.18956  eV     2   --> E    G_5 D_5   
     e( 13 - 13) =      2.84378  eV     1   --> B_1  G_3 D_2   
     e( 14 - 14) =      2.84475  eV     1   --> A_1  G_1 D_1   
     e( 15 - 15) =      2.88898  eV     1   --> B_2  G_4 D_2'  
     e( 16 - 17) =      2.88936  eV     2   --> E    G_5 D_5   
     e( 18 - 18) =      8.25044  eV     1   --> A_1  G_1 D_1   
     e( 19 - 19) =     13.74348  eV     1   --> A_1  G_1 D_1   
     e( 20 - 20) =     15.25442  eV     1   --> A_1  G_1 D_1   
     e( 21 - 21) =     15.26372  eV     1   --> B_2  G_4 D_2'  
     e( 22 - 23) =     15.26516  eV     2   --> E    G_5 D_5   
     e( 24 - 24) =     15.28559  eV     1   --> B_1  G_3 D_2   
     e( 25 - 26) =     17.86197  eV     2   --> E    G_5 D_5   
     e( 27 - 27) =     17.90468  eV     1   --> B_2  G_4 D_2'  
     e( 28 - 28) =     18.93059  eV     1   --> A_1  G_1 D_1   
     e( 29 - 29) =     19.00193  eV     1   --> B_1  G_3 D_2   
     e( 30 - 30) =     19.19803  eV     1   --> A_1  G_1 D_1   
     e( 31 - 32) =     19.29064  eV     2   --> E    G_5 D_5   
     e( 33 - 33) =     19.67962  eV     1   --> B_1  G_3 D_2   
     e( 34 - 34) =     20.16813  eV     1   --> A_2  G_2 D_1'  
     e( 35 - 36) =     20.22091  eV     2   --> E    G_5 D_5   
     e( 37 - 37) =     21.42157  eV     1   --> A_1  G_1 D_1   
     e( 38 - 38) =     25.81681  eV     1   --> A_1  G_1 D_1   
     e( 39 - 39) =     25.82595  eV     1   --> B_1  G_3 D_2   
     e( 40 - 41) =     27.85816  eV     2   --> E    G_5 D_5   

 **************************************************************************

 **************************************************************************

                    xk=(   0.00000,   0.05000,   0.00000  )

     Band symmetry, C_4v (4mm)  point group:

     e(  1 -  1) =    -78.12411  eV     1   --> A_1  G_1 D_1   
     e(  2 -  3) =    -78.10916  eV     2   --> A_1  G_1 D_1   
     e(  2 -  3) =    -78.10916  eV     2   --> B_1  G_3 D_2   
     e(  4 -  5) =    -32.37457  eV     2   --> E    G_5 D_5   
     e(  6 -  6) =    -32.37418  eV     1   --> A_1  G_1 D_1   
     e(  7 -  8) =    -32.28277  eV     2   --> E    G_5 D_5   
     e(  9 -  9) =    -32.28265  eV     1   --> B_1  G_3 D_2   
     e( 10 - 10) =    -32.19034  eV     1   --> A_1  G_1 D_1   
     e( 11 - 12) =    -32.18970  eV     2   --> E    G_5 D_5   
     e( 13 - 13) =      2.84404  eV     1   --> B_1  G_3 D_2   
     e( 14 - 14) =      2.84543  eV     1   --> A_1  G_1 D_1   
     e( 15 - 15) =      2.88904  eV     1   --> B_2  G_4 D_2'  
     e( 16 - 17) =      2.88958  eV     2   --> E    G_5 D_5   
     e( 18 - 18) =      8.25796  eV     1   --> A_1  G_1 D_1   
     e( 19 - 19) =     13.74807  eV     1   --> A_1  G_1 D_1   
     e( 20 - 20) =     15.24690  eV     1   --> A_1  G_1 D_1   
     e( 21 - 21) =     15.26514  eV     1   --> B_2  G_4 D_2'  
     e( 22 - 23) =     15.26720  eV     2   --> E    G_5 D_5   
     e( 24 - 24) =     15.29188  eV     1   --> B_1  G_3 D_2   
     e( 25 - 26) =     17.84140  eV     2   --> E    G_5 D_5   
     e( 27 - 27) =     17.90164  eV     1   --> B_2  G_4 D_2'  
     e( 28 - 28) =     18.89218  eV     1   --> A_1  G_1 D_1   
     e( 29 - 29) =     19.00137  eV     1   --> B_1  G_3 D_2   
     e( 30 - 30) =     19.17052  eV     1   --> A_1  G_1 D_1   
     e( 31 - 32) =     19.28907  eV     2   --> E    G_5 D_5   
     e( 33 - 33) =     19.67261  eV     1   --> B_1  G_3 D_2   
     e( 34 - 34) =     20.16815  eV     1   --> A_2  G_2 D_1'  
     e( 35 - 36) =     20.24447  eV     2   --> E    G_5 D_5   
     e( 37 - 37) =     21.46905  eV     1   --> A_1  G_1 D_1   
     e( 38 - 38) =     25.81223  eV     1   --> A_1  G_1 D_1   
     e( 39 - 39) =     25.82293  eV     1   --> B_1  G_3 D_2   
     e( 40 - 41) =     27.86362  eV     2   --> E    G_5 D_5   

 **************************************************************************

 **************************************************************************

                    xk=(   0.00000,   0.05833,   0.00000  )

     Band symmetry, C_4v (4mm)  point group:

     e(  1 -  1) =    -78.12408  eV     1   --> A_1  G_1 D_1   
     e(  2 -  2) =    -78.10919  eV     1   --> A_1  G_1 D_1   
     e(  3 -  3) =    -78.10907  eV     1   --> B_1  G_3 D_2   
     e(  4 -  5) =    -32.37435  eV     2   --> E    G_5 D_5   
     e(  6 -  6) =    -32.37382  eV     1   --> A_1  G_1 D_1   
     e(  7 -  8) =    -32.28283  eV     2   --> E    G_5 D_5   
     e(  9 -  9) =    -32.28266  eV     1   --> B_1  G_3 D_2   
     e( 10 - 10) =    -32.19074  eV     1   --> A_1  G_1 D_1   
     e( 11 - 12) =    -32.18987  eV     2   --> E    G_5 D_5   
     e( 13 - 13) =      2.84435  eV     1   --> B_1  G_3 D_2   
     e( 14 - 14) =      2.84624  eV     1   --> A_1  G_1 D_1   
     e( 15 - 15) =      2.88910  eV     1   --> B_2  G_4 D_2'  
     e( 16 - 17) =      2.88984  eV     2   --> E    G_5 D_5   
     e( 18 - 18) =      8.26684  eV     1   --> A_1  G_1 D_1   
     e( 19 - 19) =     13.75344  eV     1   --> A_1  G_1 D_1   
     e( 20 - 20) =     15.23793  eV     1   --> A_1  G_1 D_1   
     e( 21 - 21) =     15.26682  eV     1   --> B_2  G_4 D_2'  
     e( 22 - 23) =     15.26960  eV     2   --> E    G_5 D_5   
     e( 24 - 24) =     15.29932  eV     1   --> B_1  G_3 D_2   
     e( 25 - 26) =     17.81798  eV     2   --> E    G_5 D_5   
     e( 27 - 27) =     17.89806  eV     1   --> B_2  G_4 D_2'  
     e( 28 - 28) =     18.84397  eV     1   --> A_1  G_1 D_1   
     e( 29 - 29) =     19.00069  eV     1   --> B_1  G_3 D_2   
     e( 30 - 30) =     19.14516  eV     1   --> A_1  G_1 D_1   
     e( 31 - 32) =     19.28626  eV     2   --> E    G_5 D_5   
     e( 33 - 33) =     19.66434  eV     1   --> B_1  G_3 D_2   
     e( 34 - 34) =     20.16818  eV     1   --> A_2  G_2 D_1'  
     e( 35 - 36) =     20.27244  eV     2   --> E    G_5 D_5   
     e( 37 - 37) =     21.52031  eV     1   --> A_1  G_1 D_1   
     e( 38 - 38) =     25.80860  eV     1   --> A_1  G_1 D_1   
     e( 39 - 39) =     25.81937  eV     1   --> B_1  G_3 D_2   
     e( 40 - 41) =     27.86958  eV     2   --> E    G_5 D_5   

 **************************************************************************

 **************************************************************************

                    xk=(   0.00000,   0.06667,   0.00000  )

     Band symmetry, C_4v (4mm)  point group:

     e(  1 -  1) =    -78.12405  eV     1   --> A_1  G_1 D_1   
     e(  2 -  2) =    -78.10922  eV     1   --> A_1  G_1 D_1   
     e(  3 -  3) =    -78.10907  eV     1   --> B_1  G_3 D_2   
     e(  4 -  5) =    -32.37409  eV     2   --> E    G_5 D_5   
     e(  6 -  6) =    -32.37340  eV     1   --> A_1  G_1 D_1   
     e(  7 -  8) =    -32.28289  eV     2   --> E    G_5 D_5   
     e(  9 -  9) =    -32.28268  eV     1   --> B_1  G_3 D_2   
     e( 10 - 10) =    -32.19120  eV     1   --> A_1  G_1 D_1   
     e( 11 - 12) =    -32.19007  eV     2   --> E    G_5 D_5   
     e( 13 - 13) =      2.84471  eV     1   --> B_1  G_3 D_2   
     e( 14 - 14) =      2.84716  eV     1   --> A_1  G_1 D_1   
     e( 15 - 15) =      2.88917  eV     1   --> B_2  G_4 D_2'  
     e( 16 - 17) =      2.89014  eV     2   --> E    G_5 D_5   
     e( 18 - 18) =      8.27708  eV     1   --> A_1  G_1 D_1   
     e( 19 - 19) =     13.75956  eV     1   --> A_1  G_1 D_1   
     e( 20 - 20) =     15.22747  eV     1   --> A_1  G_1 D_1   
     e( 21 - 21) =     15.26874  eV     1   --> B_2  G_4 D_2'  
     e( 22 - 23) =     15.27234  eV     2   --> E    G_5 D_5   
     e( 24 - 24) =     15.30789  eV     1   --> B_1  G_3 D_2   
     e( 25 - 26) =     17.79209  eV     2   --> E    G_5 D_5   
     e( 27 - 27) =     17.89396  eV     1   --> B_2  G_4 D_2'  
     e( 28 - 28) =     18.78682  eV     1   --> A_1  G_1 D_1   
     e( 29 - 29) =     18.99990  eV     1   --> B_1  G_3 D_2   
     e( 30 - 30) =     19.12243  eV     1   --> A_1  G_1 D_1   
     e( 31 - 32) =     19.28192  eV     2   --> E    G_5 D_5   
     e( 33 - 33) =     19.65482  eV     1   --> B_1  G_3 D_2   
     e( 34 - 34) =     20.16821  eV     1   --> A_2  G_2 D_1'  
     e( 35 - 36) =     20.30482  eV     2   --> E    G_5 D_5   
     e( 37 - 37) =     21.57377  eV     1   --> A_1  G_1 D_1   
     e( 38 - 38) =     25.80667  eV     1   --> A_1  G_1 D_1   
     e( 39 - 39) =     25.81528  eV     1   --> B_1  G_3 D_2   
     e( 40 - 41) =     27.87580  eV     2   --> E    G_5 D_5   

 **************************************************************************

 **************************************************************************

                    xk=(   0.00000,   0.07500,   0.00000  )

     Band symmetry, C_4v (4mm)  point group:

     e(  1 -  1) =    -78.12401  eV     1   --> A_1  G_1 D_1   
     e(  2 -  2) =    -78.10926  eV     1   --> A_1  G_1 D_1   
     e(  3 -  3) =    -78.10907  eV     1   --> B_1  G_3 D_2   
     e(  4 -  5) =    -32.37380  eV     2   --> E    G_5 D_5   
     e(  6 -  6) =    -32.37293  eV     1   --> A_1  G_1 D_1   
     e(  7 -  8) =    -32.28297  eV     2   --> E    G_5 D_5   
     e(  9 -  9) =    -32.28269  eV     1   --> B_1  G_3 D_2   
     e( 10 - 10) =    -32.19171  eV     1   --> A_1  G_1 D_1   
     e( 11 - 12) =    -32.19029  eV     2   --> E    G_5 D_5   
     e( 13 - 13) =      2.84510  eV     1   --> B_1  G_3 D_2   
     e( 14 - 14) =      2.84820  eV     1   --> A_1  G_1 D_1   
     e( 15 - 15) =      2.88925  eV     1   --> B_2  G_4 D_2'  
     e( 16 - 17) =      2.89047  eV     2   --> E    G_5 D_5   
     e( 18 - 18) =      8.28867  eV     1   --> A_1  G_1 D_1   
     e( 19 - 19) =     13.76639  eV     1   --> A_1  G_1 D_1   
     e( 20 - 20) =     15.21548  eV     1   --> A_1  G_1 D_1   
     e( 21 - 21) =     15.27092  eV     1   --> B_2  G_4 D_2'  
     e( 22 - 23) =     15.27542  eV     2   --> E    G_5 D_5   
     e( 24 - 24) =     15.31758  eV     1   --> B_1  G_3 D_2   
     e( 25 - 26) =     17.76405  eV     2   --> E    G_5 D_5   
     e( 27 - 27) =     17.88934  eV     1   --> B_2  G_4 D_2'  
     e( 28 - 28) =     18.72235  eV     1   --> A_1  G_1 D_1   
     e( 29 - 29) =     18.99897  eV     1   --> B_1  G_3 D_2   
     e( 30 - 30) =     19.10193  eV     1   --> A_1  G_1 D_1   
     e( 31 - 32) =     19.27580  eV     2   --> E    G_5 D_5   
     e( 33 - 33) =     19.64408  eV     1   --> B_1  G_3 D_2   
     e( 34 - 34) =     20.16824  eV     1   --> A_2  G_2 D_1'  
     e( 35 - 36) =     20.34152  eV     2   --> E    G_5 D_5   
     e( 37 - 37) =     21.62793  eV     1   --> A_1  G_1 D_1   
     e( 38 - 38) =     25.80720  eV     1   --> A_1  G_1 D_1   
     e( 39 - 39) =     25.81068  eV     1   --> B_1  G_3 D_2   
     e( 40 - 41) =     27.88200  eV     2   --> E    G_5 D_5   

 **************************************************************************

 **************************************************************************

                    xk=(   0.00000,   0.08333,   0.00000  )

     Band symmetry, C_4v (4mm)  point group:

     e(  1 -  1) =    -78.12396  eV     1   --> A_1  G_1 D_1   
     e(  2 -  2) =    -78.10930  eV     1   --> A_1  G_1 D_1   
     e(  3 -  3) =    -78.10907  eV     1   --> B_1  G_3 D_2   
     e(  4 -  5) =    -32.37347  eV     2   --> E    G_5 D_5   
     e(  6 -  6) =    -32.37240  eV     1   --> A_1  G_1 D_1   
     e(  7 -  8) =    -32.28305  eV     2   --> E    G_5 D_5   
     e(  9 -  9) =    -32.28271  eV     1   --> B_1  G_3 D_2   
     e( 10 - 10) =    -32.19229  eV     1   --> A_1  G_1 D_1   
     e( 11 - 12) =    -32.19053  eV     2   --> E    G_5 D_5   
     e( 13 - 13) =      2.84555  eV     1   --> B_1  G_3 D_2   
     e( 14 - 14) =      2.84936  eV     1   --> A_1  G_1 D_1   
     e( 15 - 15) =      2.88934  eV     1   --> B_2  G_4 D_2'  
     e( 16 - 17) =      2.89084  eV     2   --> E    G_5 D_5   
     e( 18 - 18) =      8.30160  eV     1   --> A_1  G_1 D_1   
     e( 19 - 19) =     13.77388  eV     1   --> A_1  G_1 D_1   
     e( 20 - 20) =     15.20190  eV     1   --> A_1  G_1 D_1   
     e( 21 - 21) =     15.27333  eV     1   --> B_2  G_4 D_2'  
     e( 22 - 23) =     15.27882  eV     2   --> E    G_5 D_5   
     e( 24 - 24) =     15.32840  eV     1   --> B_1  G_3 D_2   
     e( 25 - 26) =     17.73423  eV     2   --> E    G_5 D_5   
     e( 27 - 27) =     17.88421  eV     1   --> B_2  G_4 D_2'  
     e( 28 - 28) =     18.65234  eV     1   --> A_1  G_1 D_1   
     e( 29 - 29) =     18.99790  eV     1   --> B_1  G_3 D_2   
     e( 30 - 30) =     19.08299  eV     1   --> A_1  G_1 D_1   
     e( 31 - 32) =     19.26774  eV     2   --> E    G_5 D_5   
     e( 33 - 33) =     19.63212  eV     1   --> B_1  G_3 D_2   
     e( 34 - 34) =     20.16828  eV     1   --> A_2  G_2 D_1'  
     e( 35 - 36) =     20.38244  eV     2   --> E    G_5 D_5   
     e( 37 - 37) =     21.68147  eV     1   --> A_1  G_1 D_1   
     e( 38 - 38) =     25.80556  eV     1   --> B_1  G_3 D_2   
     e( 39 - 39) =     25.81097  eV     1   --> A_1  G_1 D_1   
     e( 40 - 41) =     27.88786  eV     2   --> E    G_5 D_5   

 **************************************************************************

 **************************************************************************

                    xk=(   0.00000,   0.09167,   0.00000  )

     Band symmetry, C_4v (4mm)  point group:

     e(  1 -  1) =    -78.12392  eV     1   --> A_1  G_1 D_1   
     e(  2 -  2) =    -78.10935  eV     1   --> A_1  G_1 D_1   
     e(  3 -  3) =    -78.10907  eV     1   --> B_1  G_3 D_2   
     e(  4 -  5) =    -32.37312  eV     2   --> E    G_5 D_5   
     e(  6 -  6) =    -32.37183  eV     1   --> A_1  G_1 D_1   
     e(  7 -  8) =    -32.28315  eV     2   --> E    G_5 D_5   
     e(  9 -  9) =    -32.28273  eV     1   --> B_1  G_3 D_2   
     e( 10 - 10) =    -32.19293  eV     1   --> A_1  G_1 D_1   
     e( 11 - 12) =    -32.19080  eV     2   --> E    G_5 D_5   
     e( 13 - 13) =      2.84603  eV     1   --> B_1  G_3 D_2   
     e( 14 - 14) =      2.85062  eV     1   --> A_1  G_1 D_1   
     e( 15 - 15) =      2.88944  eV     1   --> B_2  G_4 D_2'  
     e( 16 - 17) =      2.89125  eV     2   --> E    G_5 D_5   
     e( 18 - 18) =      8.31586  eV     1   --> A_1  G_1 D_1   
     e( 19 - 19) =     13.78198  eV     1   --> A_1  G_1 D_1   
     e( 20 - 20) =     15.18671  eV     1   --> A_1  G_1 D_1   
     e( 21 - 21) =     15.27599  eV     1   --> B_2  G_4 D_2'  
     e( 22 - 23) =     15.28254  eV     2   --> E    G_5 D_5   
     e( 24 - 24) =     15.34033  eV     1   --> B_1  G_3 D_2   
     e( 25 - 26) =     17.70293  eV     2   --> E    G_5 D_5   
     e( 27 - 27) =     17.87858  eV     1   --> B_2  G_4 D_2'  
     e( 28 - 28) =     18.57840  eV     1   --> A_1  G_1 D_1   
     e( 29 - 29) =     18.99667  eV     1   --> B_1  G_3 D_2   
     e( 30 - 30) =     19.06493  eV     1   --> A_1  G_1 D_1   
     e( 31 - 32) =     19.25762  eV     2   --> E    G_5 D_5   
     e( 33 - 33) =     19.61897  eV     1   --> B_1  G_3 D_2   
     e( 34 - 34) =     20.16832  eV     1   --> A_2  G_2 D_1'  
     e( 35 - 36) =     20.42742  eV     2   --> E    G_5 D_5   
     e( 37 - 37) =     21.73316  eV     1   --> A_1  G_1 D_1   
     e( 38 - 38) =     25.79993  eV     1   --> B_1  G_3 D_2   
     e( 39 - 39) =     25.81870  eV     1   --> A_1  G_1 D_1   
     e( 40 - 41) =     27.89304  eV     2   --> E    G_5 D_5   

 **************************************************************************

 **************************************************************************

                    xk=(   0.00000,   0.10000,   0.00000  )

     Band symmetry, C_4v (4mm)  point group:

     e(  1 -  1) =    -78.12386  eV     1   --> A_1  G_1 D_1   
     e(  2 -  2) =    -78.10940  eV     1   --> A_1  G_1 D_1   
     e(  3 -  3) =    -78.10907  eV     1   --> B_1  G_3 D_2   
     e(  4 -  5) =    -32.37273  eV     2   --> E    G_5 D_5   
     e(  6 -  6) =    -32.37119  eV     1   --> A_1  G_1 D_1   
     e(  7 -  8) =    -32.28325  eV     2   --> E    G_5 D_5   
     e(  9 -  9) =    -32.28276  eV     1   --> B_1  G_3 D_2   
     e( 10 - 10) =    -32.19362  eV     1   --> A_1  G_1 D_1   
     e( 11 - 12) =    -32.19109  eV     2   --> E    G_5 D_5   
     e( 13 - 13) =      2.84655  eV     1   --> B_1  G_3 D_2   
     e( 14 - 14) =      2.85199  eV     1   --> A_1  G_1 D_1   
     e( 15 - 15) =      2.88955  eV     1   --> B_2  G_4 D_2'  
     e( 16 - 17) =      2.89169  eV     2   --> E    G_5 D_5   
     e( 18 - 18) =      8.33146  eV     1   --> A_1  G_1 D_1   
     e( 19 - 19) =     13.79062  eV     1   --> A_1  G_1 D_1   
     e( 20 - 20) =     15.16986  eV     1   --> A_1  G_1 D_1   
     e( 21 - 21) =     15.27888  eV     1   --> B_2  G_4 D_2'  
     e( 22 - 23) =     15.28655  eV     2   --> E    G_5 D_5   
     e( 24 - 24) =     15.35338  eV     1   --> B_1  G_3 D_2   
     e( 25 - 26) =     17.67047  eV     2   --> E    G_5 D_5   
     e( 27 - 27) =     17.87248  eV     1   --> B_2  G_4 D_2'  
     e( 28 - 28) =     18.50191  eV     1   --> A_1  G_1 D_1   
     e( 29 - 29) =     18.99526  eV     1   --> B_1  G_3 D_2   
     e( 30 - 30) =     19.04722  eV     1   --> A_1  G_1 D_1   
     e( 31 - 32) =     19.24539  eV     2   --> E    G_5 D_5   
     e( 33 - 33) =     19.60465  eV     1   --> B_1  G_3 D_2   
     e( 34 - 34) =     20.16836  eV     1   --> A_2  G_2 D_1'  
     e( 35 - 36) =     20.47626  eV     2   --> E    G_5 D_5   
     e( 37 - 37) =     21.78197  eV     1   --> A_1  G_1 D_1   
     e( 38 - 38) =     25.79381  eV     1   --> B_1  G_3 D_2   
     e( 39 - 39) =     25.83107  eV     1   --> A_1  G_1 D_1   
     e( 40 - 41) =     27.89716  eV     2   --> E    G_5 D_5   

 **************************************************************************

 **************************************************************************

                    xk=(   0.00000,   0.10833,   0.00000  )

     Band symmetry, C_4v (4mm)  point group:

     e(  1 -  1) =    -78.12381  eV     1   --> A_1  G_1 D_1   
     e(  2 -  2) =    -78.10946  eV     1   --> A_1  G_1 D_1   
     e(  3 -  3) =    -78.10907  eV     1   --> B_1  G_3 D_2   
     e(  4 -  5) =    -32.37231  eV     2   --> E    G_5 D_5   
     e(  6 -  6) =    -32.37051  eV     1   --> A_1  G_1 D_1   
     e(  7 -  8) =    -32.28337  eV     2   --> E    G_5 D_5   
     e(  9 -  9) =    -32.28278  eV     1   --> B_1  G_3 D_2   
     e( 10 - 10) =    -32.19437  eV     1   --> A_1  G_1 D_1   
     e( 11 - 12) =    -32.19140  eV     2   --> E    G_5 D_5   
     e( 13 - 13) =      2.84712  eV     1   --> B_1  G_3 D_2   
     e( 14 - 14) =      2.85346  eV     1   --> A_1  G_1 D_1   
     e( 15 - 15) =      2.88967  eV     1   --> B_2  G_4 D_2'  
     e( 16 - 17) =      2.89216  eV     2   --> E    G_5 D_5   
     e( 18 - 18) =      8.34838  eV     1   --> A_1  G_1 D_1   
     e( 19 - 19) =     13.79974  eV     1   --> A_1  G_1 D_1   
     e( 20 - 20) =     15.15133  eV     1   --> A_1  G_1 D_1   
     e( 21 - 21) =     15.28200  eV     1   --> B_2  G_4 D_2'  
     e( 22 - 23) =     15.29084  eV     2   --> E    G_5 D_5   
     e( 24 - 24) =     15.36753  eV     1   --> B_1  G_3 D_2   
     e( 25 - 26) =     17.63713  eV     2   --> E    G_5 D_5   
     e( 27 - 27) =     17.86591  eV     1   --> B_2  G_4 D_2'  
     e( 28 - 28) =     18.42397  eV     1   --> A_1  G_1 D_1   
     e( 29 - 29) =     18.99367  eV     1   --> B_1  G_3 D_2   
     e( 30 - 30) =     19.02948  eV     1   --> A_1  G_1 D_1   
     e( 31 - 32) =     19.23104  eV     2   --> E    G_5 D_5   
     e( 33 - 33) =     19.58918  eV     1   --> B_1  G_3 D_2   
     e( 34 - 34) =     20.16840  eV     1   --> A_2  G_2 D_1'  
     e( 35 - 36) =     20.52876  eV     2   --> E    G_5 D_5   
     e( 37 - 37) =     21.82698  eV     1   --> A_1  G_1 D_1   
     e( 38 - 38) =     25.78721  eV     1   --> B_1  G_3 D_2   
     e( 39 - 39) =     25.84870  eV     1   --> A_1  G_1 D_1   
     e( 40 - 41) =     27.89985  eV     2   --> E    G_5 D_5   

 **************************************************************************

 **************************************************************************

                    xk=(   0.00000,   0.11667,   0.00000  )

     Band symmetry, C_4v (4mm)  point group:

     e(  1 -  1) =    -78.12375  eV     1   --> A_1  G_1 D_1   
     e(  2 -  2) =    -78.10952  eV     1   --> A_1  G_1 D_1   
     e(  3 -  3) =    -78.10907  eV     1   --> B_1  G_3 D_2   
     e(  4 -  5) =    -32.37187  eV     2   --> E    G_5 D_5   
     e(  6 -  6) =    -32.36977  eV     1   --> A_1  G_1 D_1   
     e(  7 -  8) =    -32.28349  eV     2   --> E    G_5 D_5   
     e(  9 -  9) =    -32.28281  eV     1   --> B_1  G_3 D_2   
     e( 10 - 10) =    -32.19518  eV     1   --> A_1  G_1 D_1   
     e( 11 - 12) =    -32.19174  eV     2   --> E    G_5 D_5   
     e( 13 - 13) =      2.84772  eV     1   --> B_1  G_3 D_2   
     e( 14 - 14) =      2.85502  eV     1   --> A_1  G_1 D_1   
     e( 15 - 15) =      2.88979  eV     1   --> B_2  G_4 D_2'  
     e( 16 - 17) =      2.89267  eV     2   --> E    G_5 D_5   
     e( 18 - 18) =      8.36660  eV     1   --> A_1  G_1 D_1   
     e( 19 - 19) =     13.80924  eV     1   --> A_1  G_1 D_1   
     e( 20 - 20) =     15.13109  eV     1   --> A_1  G_1 D_1   
     e( 21 - 21) =     15.28534  eV     1   --> B_2  G_4 D_2'  
     e( 22 - 23) =     15.29540  eV     2   --> E    G_5 D_5   
     e( 24 - 24) =     15.38277  eV     1   --> B_1  G_3 D_2   
     e( 25 - 26) =     17.60316  eV     2   --> E    G_5 D_5   
     e( 27 - 27) =     17.85889  eV     1   --> B_2  G_4 D_2'  
     e( 28 - 28) =     18.34550  eV     1   --> A_1  G_1 D_1   
     e( 29 - 29) =     18.99186  eV     1   --> B_1  G_3 D_2   
     e( 30 - 30) =     19.01143  eV     1   --> A_1  G_1 D_1   
     e( 31 - 32) =     19.21461  eV     2   --> E    G_5 D_5   
     e( 33 - 33) =     19.57260  eV     1   --> B_1  G_3 D_2   
     e( 34 - 34) =     20.16845  eV     1   --> A_2  G_2 D_1'  
     e( 35 - 36) =     20.58469  eV     2   --> E    G_5 D_5   
     e( 37 - 37) =     21.86743  eV     1   --> A_1  G_1 D_1   
     e( 38 - 38) =     25.78014  eV     1   --> B_1  G_3 D_2   
     e( 39 - 39) =     25.87208  eV     1   --> A_1  G_1 D_1   
     e( 40 - 41) =     27.90069  eV     2   --> E    G_5 D_5   

 **************************************************************************

 **************************************************************************

                    xk=(   0.00000,   0.12500,   0.00000  )

     Band symmetry, C_4v (4mm)  point group:

     e(  1 -  1) =    -78.12368  eV     1   --> A_1  G_1 D_1   
     e(  2 -  2) =    -78.10958  eV     1   --> A_1  G_1 D_1   
     e(  3 -  3) =    -78.10907  eV     1   --> B_1  G_3 D_2   
     e(  4 -  5) =    -32.37139  eV     2   --> E    G_5 D_5   
     e(  6 -  6) =    -32.36898  eV     1   --> A_1  G_1 D_1   
     e(  7 -  8) =    -32.28362  eV     2   --> E    G_5 D_5   
     e(  9 -  9) =    -32.28284  eV     1   --> B_1  G_3 D_2   
     e( 10 - 10) =    -32.19605  eV     1   --> A_1  G_1 D_1   
     e( 11 - 12) =    -32.19209  eV     2   --> E    G_5 D_5   
     e( 13 - 13) =      2.84836  eV     1   --> B_1  G_3 D_2   
     e( 14 - 14) =      2.85669  eV     1   --> A_1  G_1 D_1   
     e( 15 - 15) =      2.88992  eV     1   --> B_2  G_4 D_2'  
     e( 16 - 17) =      2.89320  eV     2   --> E    G_5 D_5   
     e( 18 - 18) =      8.38613  eV     1   --> A_1  G_1 D_1   
     e( 19 - 19) =     13.81901  eV     1   --> A_1  G_1 D_1   
     e( 20 - 20) =     15.10913  eV     1   --> A_1  G_1 D_1   
     e( 21 - 21) =     15.28890  eV     1   --> B_2  G_4 D_2'  
     e( 22 - 23) =     15.30020  eV     2   --> E    G_5 D_5   
     e( 24 - 24) =     15.39909  eV     1   --> B_1  G_3 D_2   
     e( 25 - 26) =     17.56880  eV     2   --> E    G_5 D_5   
     e( 27 - 27) =     17.85144  eV     1   --> B_2  G_4 D_2'  
     e( 28 - 28) =     18.26724  eV     1   --> A_1  G_1 D_1   
     e( 29 - 29) =     18.98981  eV     1   --> B_1  G_3 D_2   
     e( 30 - 30) =     18.99288  eV     1   --> A_1  G_1 D_1   
     e( 31 - 32) =     19.19616  eV     2   --> E    G_5 D_5   
     e( 33 - 33) =     19.55495  eV     1   --> B_1  G_3 D_2   
     e( 34 - 34) =     20.16850  eV     1   --> A_2  G_2 D_1'  
     e( 35 - 36) =     20.64382  eV     2   --> E    G_5 D_5   
     e( 37 - 37) =     21.90273  eV     1   --> A_1  G_1 D_1   
     e( 38 - 38) =     25.77261  eV     1   --> B_1  G_3 D_2   
     e( 39 - 39) =     25.90162  eV     1   --> A_1  G_1 D_1   
     e( 40 - 41) =     27.89930  eV     2   --> E    G_5 D_5   

 **************************************************************************

 **************************************************************************

                    xk=(   0.00000,   0.13333,   0.00000  )

     Band symmetry, C_4v (4mm)  point group:

     e(  1 -  1) =    -78.12361  eV     1   --> A_1  G_1 D_1   
     e(  2 -  2) =    -78.10965  eV     1   --> A_1  G_1 D_1   
     e(  3 -  3) =    -78.10907  eV     1   --> B_1  G_3 D_2   
     e(  4 -  5) =    -32.37088  eV     2   --> E    G_5 D_5   
     e(  6 -  6) =    -32.36814  eV     1   --> A_1  G_1 D_1   
     e(  7 -  8) =    -32.28377  eV     2   --> E    G_5 D_5   
     e(  9 -  9) =    -32.28287  eV     1   --> B_1  G_3 D_2   
     e( 10 - 10) =    -32.19697  eV     1   --> A_1  G_1 D_1   
     e( 11 - 12) =    -32.19247  eV     2   --> E    G_5 D_5   
     e( 13 - 13) =      2.84903  eV     1   --> B_1  G_3 D_2   
     e( 14 - 14) =      2.85844  eV     1   --> A_1  G_1 D_1   
     e( 15 - 15) =      2.89006  eV     1   --> B_2  G_4 D_2'  
     e( 16 - 17) =      2.89376  eV     2   --> E    G_5 D_5   
     e( 18 - 18) =      8.40695  eV     1   --> A_1  G_1 D_1   
     e( 19 - 19) =     13.82893  eV     1   --> A_1  G_1 D_1   
     e( 20 - 20) =     15.08549  eV     1   --> A_1  G_1 D_1   
     e( 21 - 21) =     15.29268  eV     1   --> B_2  G_4 D_2'  
     e( 22 - 23) =     15.30523  eV     2   --> E    G_5 D_5   
     e( 24 - 24) =     15.41649  eV     1   --> B_1  G_3 D_2   
     e( 25 - 26) =     17.53426  eV     2   --> E    G_5 D_5   
     e( 27 - 27) =     17.84357  eV     1   --> B_2  G_4 D_2'  
     e( 28 - 28) =     18.18983  eV     1   --> A_1  G_1 D_1   
     e( 29 - 29) =     18.97369  eV     1   --> A_1  G_1 D_1   
     e( 30 - 30) =     18.98748  eV     1   --> B_1  G_3 D_2   
     e( 31 - 32) =     19.17577  eV     2   --> E    G_5 D_5   
     e( 33 - 33) =     19.53627  eV     1   --> B_1  G_3 D_2   
     e( 34 - 34) =     20.16856  eV     1   --> A_2  G_2 D_1'  
     e( 35 - 36) =     20.70592  eV     2   --> E    G_5 D_5   
     e( 37 - 37) =     21.93241  eV     1   --> A_1  G_1 D_1   
     e( 38 - 38) =     25.76465  eV     1   --> B_1  G_3 D_2   
     e( 39 - 39) =     25.93758  eV     1   --> A_1  G_1 D_1   
     e( 40 - 41) =     27.89530  eV     2   --> E    G_5 D_5   

 **************************************************************************

 **************************************************************************

                    xk=(   0.00000,   0.14167,   0.00000  )

     Band symmetry, C_4v (4mm)  point group:

     e(  1 -  1) =    -78.12354  eV     1   --> A_1  G_1 D_1   
     e(  2 -  2) =    -78.10972  eV     1   --> A_1  G_1 D_1   
     e(  3 -  3) =    -78.10907  eV     1   --> B_1  G_3 D_2   
     e(  4 -  5) =    -32.37034  eV     2   --> E    G_5 D_5   
     e(  6 -  6) =    -32.36725  eV     1   --> A_1  G_1 D_1   
     e(  7 -  8) =    -32.28392  eV     2   --> E    G_5 D_5   
     e(  9 -  9) =    -32.28290  eV     1   --> B_1  G_3 D_2   
     e( 10 - 10) =    -32.19794  eV     1   --> A_1  G_1 D_1   
     e( 11 - 12) =    -32.19286  eV     2   --> E    G_5 D_5   
     e( 13 - 13) =      2.84973  eV     1   --> B_1  G_3 D_2   
     e( 14 - 14) =      2.86027  eV     1   --> A_1  G_1 D_1   
     e( 15 - 15) =      2.89020  eV     1   --> B_2  G_4 D_2'  
     e( 16 - 17) =      2.89435  eV     2   --> E    G_5 D_5   
     e( 18 - 18) =      8.42905  eV     1   --> A_1  G_1 D_1   
     e( 19 - 19) =     13.83885  eV     1   --> A_1  G_1 D_1   
     e( 20 - 20) =     15.06021  eV     1   --> A_1  G_1 D_1   
     e( 21 - 21) =     15.29665  eV     1   --> B_2  G_4 D_2'  
     e( 22 - 23) =     15.31045  eV     2   --> E    G_5 D_5   
     e( 24 - 24) =     15.43496  eV     1   --> B_1  G_3 D_2   
     e( 25 - 26) =     17.49973  eV     2   --> E    G_5 D_5   
     e( 27 - 27) =     17.83530  eV     1   --> B_2  G_4 D_2'  
     e( 28 - 28) =     18.11377  eV     1   --> A_1  G_1 D_1   
     e( 29 - 29) =     18.95379  eV     1   --> A_1  G_1 D_1   
     e( 30 - 30) =     18.98484  eV     1   --> B_1  G_3 D_2   
     e( 31 - 32) =     19.15356  eV     2   --> E    G_5 D_5   
     e( 33 - 33) =     19.51662  eV     1   --> B_1  G_3 D_2   
     e( 34 - 34) =     20.16861  eV     1   --> A_2  G_2 D_1'  
     e( 35 - 36) =     20.77077  eV     2   --> E    G_5 D_5   
     e( 37 - 37) =     21.95617  eV     1   --> A_1  G_1 D_1   
     e( 38 - 38) =     25.75626  eV     1   --> B_1  G_3 D_2   
     e( 39 - 39) =     25.98009  eV     1   --> A_1  G_1 D_1   
     e( 40 - 41) =     27.88833  eV     2   --> E    G_5 D_5   

 **************************************************************************

 **************************************************************************

                    xk=(   0.00000,   0.15000,   0.00000  )

     Band symmetry, C_4v (4mm)  point group:

     e(  1 -  1) =    -78.12346  eV     1   --> A_1  G_1 D_1   
     e(  2 -  2) =    -78.10980  eV     1   --> A_1  G_1 D_1   
     e(  3 -  3) =    -78.10907  eV     1   --> B_1  G_3 D_2   
     e(  4 -  5) =    -32.36978  eV     2   --> E    G_5 D_5   
     e(  6 -  6) =    -32.36631  eV     1   --> A_1  G_1 D_1   
     e(  7 -  8) =    -32.28408  eV     2   --> E    G_5 D_5   
     e(  9 -  9) =    -32.28293  eV     1   --> B_1  G_3 D_2   
     e( 10 - 10) =    -32.19897  eV     1   --> A_1  G_1 D_1   
     e( 11 - 12) =    -32.19327  eV     2   --> E    G_5 D_5   
     e( 13 - 13) =      2.85046  eV     1   --> B_1  G_3 D_2   
     e( 14 - 14) =      2.86219  eV     1   --> A_1  G_1 D_1   
     e( 15 - 15) =      2.89035  eV     1   --> B_2  G_4 D_2'  
     e( 16 - 17) =      2.89497  eV     2   --> E    G_5 D_5   
     e( 18 - 18) =      8.45241  eV     1   --> A_1  G_1 D_1   
     e( 19 - 19) =     13.84858  eV     1   --> A_1  G_1 D_1   
     e( 20 - 20) =     15.03337  eV     1   --> A_1  G_1 D_1   
     e( 21 - 21) =     15.30082  eV     1   --> B_2  G_4 D_2'  
     e( 22 - 23) =     15.31586  eV     2   --> E    G_5 D_5   
     e( 24 - 24) =     15.45447  eV     1   --> B_1  G_3 D_2   
     e( 25 - 26) =     17.46540  eV     2   --> E    G_5 D_5   
     e( 27 - 27) =     17.82666  eV     1   --> B_2  G_4 D_2'  
     e( 28 - 28) =     18.03952  eV     1   --> A_1  G_1 D_1   
     e( 29 - 29) =     18.93310  eV     1   --> A_1  G_1 D_1   
     e( 30 - 30) =     18.98183  eV     1   --> B_1  G_3 D_2   
     e( 31 - 32) =     19.12963  eV     2   --> E    G_5 D_5   
     e( 33 - 33) =     19.49606  eV     1   --> B_1  G_3 D_2   
     e( 34 - 34) =     20.16867  eV     1   --> A_2  G_2 D_1'  
     e( 35 - 36) =     20.83817  eV     2   --> E    G_5 D_5   
     e( 37 - 37) =     21.97387  eV     1   --> A_1  G_1 D_1   
     e( 38 - 38) =     25.74748  eV     1   --> B_1  G_3 D_2   
     e( 39 - 39) =     26.02912  eV     1   --> A_1  G_1 D_1   
     e( 40 - 41) =     27.87809  eV     2   --> E    G_5 D_5   

 **************************************************************************

 **************************************************************************

                    xk=(   0.00000,   0.15833,   0.00000  )

     Band symmetry, C_4v (4mm)  point group:

     e(  1 -  1) =    -78.12338  eV     1   --> A_1  G_1 D_1   
     e(  2 -  2) =    -78.10988  eV     1   --> A_1  G_1 D_1   
     e(  3 -  3) =    -78.10907  eV     1   --> B_1  G_3 D_2   
     e(  4 -  5) =    -32.36918  eV     2   --> E    G_5 D_5   
     e(  6 -  6) =    -32.36532  eV     1   --> A_1  G_1 D_1   
     e(  7 -  8) =    -32.28426  eV     2   --> E    G_5 D_5   
     e(  9 -  9) =    -32.28297  eV     1   --> B_1  G_3 D_2   
     e( 10 - 10) =    -32.20005  eV     1   --> A_1  G_1 D_1   
     e( 11 - 12) =    -32.19370  eV     2   --> E    G_5 D_5   
     e( 13 - 13) =      2.85123  eV     1   --> B_1  G_3 D_2   
     e( 14 - 14) =      2.86418  eV     1   --> A_1  G_1 D_1   
     e( 15 - 15) =      2.89051  eV     1   --> B_2  G_4 D_2'  
     e( 16 - 17) =      2.89561  eV     2   --> E    G_5 D_5   
     e( 18 - 18) =      8.47701  eV     1   --> A_1  G_1 D_1   
     e( 19 - 19) =     13.85791  eV     1   --> A_1  G_1 D_1   
     e( 20 - 20) =     15.00511  eV     1   --> A_1  G_1 D_1   
     e( 21 - 21) =     15.30518  eV     1   --> B_2  G_4 D_2'  
     e( 22 - 23) =     15.32143  eV     2   --> E    G_5 D_5   
     e( 24 - 24) =     15.47503  eV     1   --> B_1  G_3 D_2   
     e( 25 - 26) =     17.43142  eV     2   --> E    G_5 D_5   
     e( 27 - 27) =     17.81767  eV     1   --> B_2  G_4 D_2'  
     e( 28 - 28) =     17.96743  eV     1   --> A_1  G_1 D_1   
     e( 29 - 29) =     18.91158  eV     1   --> A_1  G_1 D_1   
     e( 30 - 30) =     18.97840  eV     1   --> B_1  G_3 D_2   
     e( 31 - 32) =     19.10408  eV     2   --> E    G_5 D_5   
     e( 33 - 33) =     19.47467  eV     1   --> B_1  G_3 D_2   
     e( 34 - 34) =     20.16874  eV     1   --> A_2  G_2 D_1'  
     e( 35 - 36) =     20.90790  eV     2   --> E    G_5 D_5   
     e( 37 - 37) =     21.98549  eV     1   --> A_1  G_1 D_1   
     e( 38 - 38) =     25.73831  eV     1   --> B_1  G_3 D_2   
     e( 39 - 39) =     26.08453  eV     1   --> A_1  G_1 D_1   
     e( 40 - 41) =     27.86433  eV     2   --> E    G_5 D_5   

 **************************************************************************

 **************************************************************************

                    xk=(   0.00000,   0.16667,   0.00000  )

     Band symmetry, C_4v (4mm)  point group:

     e(  1 -  1) =    -78.12330  eV     1   --> A_1  G_1 D_1   
     e(  2 -  2) =    -78.10997  eV     1   --> A_1  G_1 D_1   
     e(  3 -  3) =    -78.10907  eV     1   --> B_1  G_3 D_2   
     e(  4 -  5) =    -32.36857  eV     2   --> E    G_5 D_5   
     e(  6 -  6) =    -32.36428  eV     1   --> A_1  G_1 D_1   
     e(  7 -  8) =    -32.28444  eV     2   --> E    G_5 D_5   
     e(  9 -  9) =    -32.28301  eV     1   --> B_1  G_3 D_2   
     e( 10 - 10) =    -32.20118  eV     1   --> A_1  G_1 D_1   
     e( 11 - 12) =    -32.19415  eV     2   --> E    G_5 D_5   
     e( 13 - 13) =      2.85202  eV     1   --> B_1  G_3 D_2   
     e( 14 - 14) =      2.86624  eV     1   --> A_1  G_1 D_1   
     e( 15 - 15) =      2.89067  eV     1   --> B_2  G_4 D_2'  
     e( 16 - 17) =      2.89627  eV     2   --> E    G_5 D_5   
     e( 18 - 18) =      8.50285  eV     1   --> A_1  G_1 D_1   
     e( 19 - 19) =     13.86658  eV     1   --> A_1  G_1 D_1   
     e( 20 - 20) =     14.97562  eV     1   --> A_1  G_1 D_1   
     e( 21 - 21) =     15.30972  eV     1   --> B_2  G_4 D_2'  
     e( 22 - 23) =     15.32712  eV     2   --> E    G_5 D_5   
     e( 24 - 24) =     15.49660  eV     1   --> B_1  G_3 D_2   
     e( 25 - 26) =     17.39794  eV     2   --> E    G_5 D_5   
     e( 27 - 27) =     17.80834  eV     1   --> B_2  G_4 D_2'  
     e( 28 - 28) =     17.89783  eV     1   --> A_1  G_1 D_1   
     e( 29 - 29) =     18.88921  eV     1   --> A_1  G_1 D_1   
     e( 30 - 30) =     18.97448  eV     1   --> B_1  G_3 D_2   
     e( 31 - 32) =     19.07704  eV     2   --> E    G_5 D_5   
     e( 33 - 33) =     19.45253  eV     1   --> B_1  G_3 D_2   
     e( 34 - 34) =     20.16880  eV     1   --> A_2  G_2 D_1'  
     e( 35 - 36) =     20.97981  eV     2   --> E    G_5 D_5   
     e( 37 - 37) =     21.99114  eV     1   --> A_1  G_1 D_1   
     e( 38 - 38) =     25.72877  eV     1   --> B_1  G_3 D_2   
     e( 39 - 39) =     26.14603  eV     1   --> A_1  G_1 D_1   
     e( 40 - 41) =     27.84683  eV     2   --> E    G_5 D_5   

 **************************************************************************

 **************************************************************************

                    xk=(   0.00000,   0.17500,   0.00000  )

     Band symmetry, C_4v (4mm)  point group:

     e(  1 -  1) =    -78.12321  eV     1   --> A_1  G_1 D_1   
     e(  2 -  2) =    -78.11005  eV     1   --> A_1  G_1 D_1   
     e(  3 -  3) =    -78.10907  eV     1   --> B_1  G_3 D_2   
     e(  4 -  5) =    -32.36792  eV     2   --> E    G_5 D_5   
     e(  6 -  6) =    -32.36319  eV     1   --> A_1  G_1 D_1   
     e(  7 -  8) =    -32.28463  eV     2   --> E    G_5 D_5   
     e(  9 -  9) =    -32.28304  eV     1   --> B_1  G_3 D_2   
     e( 10 - 10) =    -32.20237  eV     1   --> A_1  G_1 D_1   
     e( 11 - 12) =    -32.19461  eV     2   --> E    G_5 D_5   
     e( 13 - 13) =      2.85283  eV     1   --> B_1  G_3 D_2   
     e( 14 - 14) =      2.86836  eV     1   --> A_1  G_1 D_1   
     e( 15 - 15) =      2.89083  eV     1   --> B_2  G_4 D_2'  
     e( 16 - 17) =      2.89696  eV     2   --> E    G_5 D_5   
     e( 18 - 18) =      8.52990  eV     1   --> A_1  G_1 D_1   
     e( 19 - 19) =     13.87428  eV     1   --> A_1  G_1 D_1   
     e( 20 - 20) =     14.94516  eV     1   --> A_1  G_1 D_1   
     e( 21 - 21) =     15.31443  eV     1   --> B_2  G_4 D_2'  
     e( 22 - 23) =     15.33292  eV     2   --> E    G_5 D_5   
     e( 24 - 24) =     15.51919  eV     1   --> B_1  G_3 D_2   
     e( 25 - 26) =     17.36509  eV     2   --> E    G_5 D_5   
     e( 27 - 27) =     17.79870  eV     1   --> B_2  G_4 D_2'  
     e( 28 - 28) =     17.83096  eV     1   --> A_1  G_1 D_1   
     e( 29 - 29) =     18.86597  eV     1   --> A_1  G_1 D_1   
     e( 30 - 30) =     18.96997  eV     1   --> B_1  G_3 D_2   
     e( 31 - 32) =     19.04862  eV     2   --> E    G_5 D_5   
     e( 33 - 33) =     19.42975  eV     1   --> B_1  G_3 D_2   
     e( 34 - 34) =     20.16886  eV     1   --> A_2  G_2 D_1'  
     e( 35 - 36) =     21.05370  eV     2   --> E    G_5 D_5   
     e( 37 - 37) =     21.99103  eV     1   --> A_1  G_1 D_1   
     e( 38 - 38) =     25.71890  eV     1   --> B_1  G_3 D_2   
     e( 39 - 39) =     26.21320  eV     1   --> A_1  G_1 D_1   
     e( 40 - 41) =     27.82547  eV     2   --> E    G_5 D_5   

 **************************************************************************

 **************************************************************************

                    xk=(   0.00000,   0.18333,   0.00000  )

     Band symmetry, C_4v (4mm)  point group:

     e(  1 -  1) =    -78.12312  eV     1   --> A_1  G_1 D_1   
     e(  2 -  2) =    -78.11015  eV     1   --> A_1  G_1 D_1   
     e(  3 -  3) =    -78.10907  eV     1   --> B_1  G_3 D_2   
     e(  4 -  5) =    -32.36726  eV     2   --> E    G_5 D_5   
     e(  6 -  6) =    -32.36206  eV     1   --> A_1  G_1 D_1   
     e(  7 -  8) =    -32.28484  eV     2   --> E    G_5 D_5   
     e(  9 -  9) =    -32.28308  eV     1   --> B_1  G_3 D_2   
     e( 10 - 10) =    -32.20360  eV     1   --> A_1  G_1 D_1   
     e( 11 - 12) =    -32.19508  eV     2   --> E    G_5 D_5   
     e( 13 - 13) =      2.85366  eV     1   --> B_1  G_3 D_2   
     e( 14 - 14) =      2.87054  eV     1   --> A_1  G_1 D_1   
     e( 15 - 15) =      2.89101  eV     1   --> B_2  G_4 D_2'  
     e( 16 - 17) =      2.89766  eV     2   --> E    G_5 D_5   
     e( 18 - 18) =      8.55814  eV     1   --> A_1  G_1 D_1   
     e( 19 - 19) =     13.88064  eV     1   --> A_1  G_1 D_1   
     e( 20 - 20) =     14.91407  eV     1   --> A_1  G_1 D_1   
     e( 21 - 21) =     15.31931  eV     1   --> B_2  G_4 D_2'  
     e( 22 - 23) =     15.33879  eV     2   --> E    G_5 D_5   
     e( 24 - 24) =     15.54277  eV     1   --> B_1  G_3 D_2   
     e( 25 - 26) =     17.33300  eV     2   --> E    G_5 D_5   
     e( 27 - 27) =     17.76703  eV     1   --> A_1  G_1 D_1   
     e( 28 - 28) =     17.78877  eV     1   --> B_2  G_4 D_2'  
     e( 29 - 29) =     18.84185  eV     1   --> A_1  G_1 D_1   
     e( 30 - 30) =     18.96479  eV     1   --> B_1  G_3 D_2   
     e( 31 - 32) =     19.01892  eV     2   --> E    G_5 D_5   
     e( 33 - 33) =     19.40646  eV     1   --> B_1  G_3 D_2   
     e( 34 - 34) =     20.16893  eV     1   --> A_2  G_2 D_1'  
     e( 35 - 36) =     21.12944  eV     2   --> E    G_5 D_5   
     e( 37 - 37) =     21.98545  eV     1   --> A_1  G_1 D_1   
     e( 38 - 38) =     25.70871  eV     1   --> B_1  G_3 D_2   
     e( 39 - 39) =     26.28553  eV     1   --> A_1  G_1 D_1   
     e( 40 - 41) =     27.80017  eV     2   --> E    G_5 D_5   

 **************************************************************************

 **************************************************************************

                    xk=(   0.00000,   0.19167,   0.00000  )

     Band symmetry, C_4v (4mm)  point group:

     e(  1 -  1) =    -78.12302  eV     1   --> A_1  G_1 D_1   
     e(  2 -  2) =    -78.11024  eV     1   --> A_1  G_1 D_1   
     e(  3 -  3) =    -78.10907  eV     1   --> B_1  G_3 D_2   
     e(  4 -  5) =    -32.36657  eV     2   --> E    G_5 D_5   
     e(  6 -  6) =    -32.36089  eV     1   --> A_1  G_1 D_1   
     e(  7 -  8) =    -32.28505  eV     2   --> E    G_5 D_5   
     e(  9 -  9) =    -32.28312  eV     1   --> B_1  G_3 D_2   
     e( 10 - 10) =    -32.20487  eV     1   --> A_1  G_1 D_1   
     e( 11 - 12) =    -32.19557  eV     2   --> E    G_5 D_5   
     e( 13 - 13) =      2.85452  eV     1   --> B_1  G_3 D_2   
     e( 14 - 14) =      2.87277  eV     1   --> A_1  G_1 D_1   
     e( 15 - 15) =      2.89118  eV     1   --> B_2  G_4 D_2'  
     e( 16 - 17) =      2.89838  eV     2   --> E    G_5 D_5   
     e( 18 - 18) =      8.58755  eV     1   --> A_1  G_1 D_1   
     e( 19 - 19) =     13.88522  eV     1   --> A_1  G_1 D_1   
     e( 20 - 20) =     14.88277  eV     1   --> A_1  G_1 D_1   
     e( 21 - 21) =     15.32433  eV     1   --> B_2  G_4 D_2'  
     e( 22 - 23) =     15.34470  eV     2   --> E    G_5 D_5   
     e( 24 - 24) =     15.56732  eV     1   --> B_1  G_3 D_2   
     e( 25 - 26) =     17.30176  eV     2   --> E    G_5 D_5   
     e( 27 - 27) =     17.70620  eV     1   --> A_1  G_1 D_1   
     e( 28 - 28) =     17.77859  eV     1   --> B_2  G_4 D_2'  
     e( 29 - 29) =     18.81687  eV     1   --> A_1  G_1 D_1   
     e( 30 - 30) =     18.95879  eV     1   --> B_1  G_3 D_2   
     e( 31 - 32) =     18.98807  eV     2   --> E    G_5 D_5   
     e( 33 - 33) =     19.38282  eV     1   --> B_1  G_3 D_2   
     e( 34 - 34) =     20.16900  eV     1   --> A_2  G_2 D_1'  
     e( 35 - 36) =     21.20688  eV     2   --> E    G_5 D_5   
     e( 37 - 37) =     21.97479  eV     1   --> A_1  G_1 D_1   
     e( 38 - 38) =     25.69823  eV     1   --> B_1  G_3 D_2   
     e( 39 - 39) =     26.36245  eV     1   --> A_1  G_1 D_1   
     e( 40 - 41) =     27.77092  eV     2   --> E    G_5 D_5   

 **************************************************************************

 **************************************************************************

                    xk=(   0.00000,   0.20000,   0.00000  )

     Band symmetry, C_4v (4mm)  point group:

     e(  1 -  1) =    -78.12292  eV     1   --> A_1  G_1 D_1   
     e(  2 -  2) =    -78.11034  eV     1   --> A_1  G_1 D_1   
     e(  3 -  3) =    -78.10907  eV     1   --> B_1  G_3 D_2   
     e(  4 -  5) =    -32.36585  eV     2   --> E    G_5 D_5   
     e(  6 -  6) =    -32.35967  eV     1   --> A_1  G_1 D_1   
     e(  7 -  8) =    -32.28528  eV     2   --> E    G_5 D_5   
     e(  9 -  9) =    -32.28316  eV     1   --> B_1  G_3 D_2   
     e( 10 - 10) =    -32.20620  eV     1   --> A_1  G_1 D_1   
     e( 11 - 12) =    -32.19607  eV     2   --> E    G_5 D_5   
     e( 13 - 13) =      2.85539  eV     1   --> B_1  G_3 D_2   
     e( 14 - 14) =      2.87505  eV     1   --> A_1  G_1 D_1   
     e( 15 - 15) =      2.89136  eV     1   --> B_2  G_4 D_2'  
     e( 16 - 17) =      2.89911  eV     2   --> E    G_5 D_5   
     e( 18 - 18) =      8.61811  eV     1   --> A_1  G_1 D_1   
     e( 19 - 19) =     13.88753  eV     1   --> A_1  G_1 D_1   
     e( 20 - 20) =     14.85178  eV     1   --> A_1  G_1 D_1   
     e( 21 - 21) =     15.32949  eV     1   --> B_2  G_4 D_2'  
     e( 22 - 23) =     15.35063  eV     2   --> E    G_5 D_5   
     e( 24 - 24) =     15.59283  eV     1   --> B_1  G_3 D_2   
     e( 25 - 26) =     17.27149  eV     2   --> E    G_5 D_5   
     e( 27 - 27) =     17.64856  eV     1   --> A_1  G_1 D_1   
     e( 28 - 28) =     17.76816  eV     1   --> B_2  G_4 D_2'  
     e( 29 - 29) =     18.79102  eV     1   --> A_1  G_1 D_1   
     e( 30 - 30) =     18.95184  eV     1   --> B_1  G_3 D_2   
     e( 31 - 32) =     18.95617  eV     2   --> E    G_5 D_5   
     e( 33 - 33) =     19.35899  eV     1   --> B_1  G_3 D_2   
     e( 34 - 34) =     20.16907  eV     1   --> A_2  G_2 D_1'  
     e( 35 - 36) =     21.28587  eV     2   --> E    G_5 D_5   
     e( 37 - 37) =     21.95946  eV     1   --> A_1  G_1 D_1   
     e( 38 - 38) =     25.68749  eV     1   --> B_1  G_3 D_2   
     e( 39 - 39) =     26.44327  eV     1   --> A_1  G_1 D_1   
     e( 40 - 41) =     27.73776  eV     2   --> E    G_5 D_5   

 **************************************************************************

 **************************************************************************

                    xk=(   0.00000,   0.20833,   0.00000  )

     Band symmetry, C_4v (4mm)  point group:

     e(  1 -  1) =    -78.12282  eV     1   --> A_1  G_1 D_1   
     e(  2 -  2) =    -78.11044  eV     1   --> A_1  G_1 D_1   
     e(  3 -  3) =    -78.10907  eV     1   --> B_1  G_3 D_2   
     e(  4 -  5) =    -32.36512  eV     2   --> E    G_5 D_5   
     e(  6 -  6) =    -32.35840  eV     1   --> A_1  G_1 D_1   
     e(  7 -  8) =    -32.28552  eV     2   --> E    G_5 D_5   
     e(  9 -  9) =    -32.28320  eV     1   --> B_1  G_3 D_2   
     e( 10 - 10) =    -32.20757  eV     1   --> A_1  G_1 D_1   
     e( 11 - 12) =    -32.19658  eV     2   --> E    G_5 D_5   
     e( 13 - 13) =      2.85628  eV     1   --> B_1  G_3 D_2   
     e( 14 - 14) =      2.87737  eV     1   --> A_1  G_1 D_1   
     e( 15 - 15) =      2.89154  eV     1   --> B_2  G_4 D_2'  
     e( 16 - 17) =      2.89986  eV     2   --> E    G_5 D_5   
     e( 18 - 18) =      8.64979  eV     1   --> A_1  G_1 D_1   
     e( 19 - 19) =     13.88698  eV     1   --> A_1  G_1 D_1   
     e( 20 - 20) =     14.82171  eV     1   --> A_1  G_1 D_1   
     e( 21 - 21) =     15.33478  eV     1   --> B_2  G_4 D_2'  
     e( 22 - 23) =     15.35653  eV     2   --> E    G_5 D_5   
     e( 24 - 24) =     15.61927  eV     1   --> B_1  G_3 D_2   
     e( 25 - 26) =     17.24227  eV     2   --> E    G_5 D_5   
     e( 27 - 27) =     17.59421  eV     1   --> A_1  G_1 D_1   
     e( 28 - 28) =     17.75753  eV     1   --> B_2  G_4 D_2'  
     e( 29 - 29) =     18.76433  eV     1   --> A_1  G_1 D_1   
     e( 30 - 31) =     18.92332  eV     2   --> E    G_5 D_5   
     e( 32 - 32) =     18.94376  eV     1   --> B_1  G_3 D_2   
     e( 33 - 33) =     19.33519  eV     1   --> B_1  G_3 D_2   
     e( 34 - 34) =     20.16914  eV     1   --> A_2  G_2 D_1'  
     e( 35 - 36) =     21.36632  eV     2   --> E    G_5 D_5   
     e( 37 - 37) =     21.93990  eV     1   --> A_1  G_1 D_1   
     e( 38 - 38) =     25.67651  eV     1   --> B_1  G_3 D_2   
     e( 39 - 39) =     26.52730  eV     1   --> A_1  G_1 D_1   
     e( 40 - 41) =     27.70077  eV     2   --> E    G_5 D_5   

 **************************************************************************

 **************************************************************************

                    xk=(   0.00000,   0.21667,   0.00000  )

     Band symmetry, C_4v (4mm)  point group:

     e(  1 -  1) =    -78.12271  eV     1   --> A_1  G_1 D_1   
     e(  2 -  2) =    -78.11055  eV     1   --> A_1  G_1 D_1   
     e(  3 -  3) =    -78.10907  eV     1   --> B_1  G_3 D_2   
     e(  4 -  5) =    -32.36437  eV     2   --> E    G_5 D_5   
     e(  6 -  6) =    -32.35710  eV     1   --> A_1  G_1 D_1   
     e(  7 -  8) =    -32.28576  eV     2   --> E    G_5 D_5   
     e(  9 -  9) =    -32.28324  eV     1   --> B_1  G_3 D_2   
     e( 10 - 10) =    -32.20898  eV     1   --> A_1  G_1 D_1   
     e( 11 - 12) =    -32.19710  eV     2   --> E    G_5 D_5   
     e( 13 - 13) =      2.85718  eV     1   --> B_1  G_3 D_2   
     e( 14 - 14) =      2.87972  eV     1   --> A_1  G_1 D_1   
     e( 15 - 15) =      2.89172  eV     1   --> B_2  G_4 D_2'  
     e( 16 - 17) =      2.90062  eV     2   --> E    G_5 D_5   
     e( 18 - 18) =      8.68256  eV     1   --> A_1  G_1 D_1   
     e( 19 - 19) =     13.88295  eV     1   --> A_1  G_1 D_1   
     e( 20 - 20) =     14.79324  eV     1   --> A_1  G_1 D_1   
     e( 21 - 21) =     15.34018  eV     1   --> B_2  G_4 D_2'  
     e( 22 - 23) =     15.36239  eV     2   --> E    G_5 D_5   
     e( 24 - 24) =     15.64661  eV     1   --> B_1  G_3 D_2   
     e( 25 - 26) =     17.21420  eV     2   --> E    G_5 D_5   
     e( 27 - 27) =     17.54316  eV     1   --> A_1  G_1 D_1   
     e( 28 - 28) =     17.74671  eV     1   --> B_2  G_4 D_2'  
     e( 29 - 29) =     18.73681  eV     1   --> A_1  G_1 D_1   
     e( 30 - 31) =     18.88963  eV     2   --> E    G_5 D_5   
     e( 32 - 32) =     18.93434  eV     1   --> B_1  G_3 D_2   
     e( 33 - 33) =     19.31166  eV     1   --> B_1  G_3 D_2   
     e( 34 - 34) =     20.16922  eV     1   --> A_2  G_2 D_1'  
     e( 35 - 36) =     21.44809  eV     2   --> E    G_5 D_5   
     e( 37 - 37) =     21.91656  eV     1   --> A_1  G_1 D_1   
     e( 38 - 38) =     25.66532  eV     1   --> B_1  G_3 D_2   
     e( 39 - 39) =     26.61380  eV     1   --> A_1  G_1 D_1   
     e( 40 - 41) =     27.66006  eV     2   --> E    G_5 D_5   

 **************************************************************************

 **************************************************************************

                    xk=(   0.00000,   0.22500,   0.00000  )

     Band symmetry, C_4v (4mm)  point group:

     e(  1 -  1) =    -78.12261  eV     1   --> A_1  G_1 D_1   
     e(  2 -  2) =    -78.11065  eV     1   --> A_1  G_1 D_1   
     e(  3 -  3) =    -78.10907  eV     1   --> B_1  G_3 D_2   
     e(  4 -  5) =    -32.36360  eV     2   --> E    G_5 D_5   
     e(  6 -  6) =    -32.35575  eV     1   --> A_1  G_1 D_1   
     e(  7 -  8) =    -32.28602  eV     2   --> E    G_5 D_5   
     e(  9 -  9) =    -32.28328  eV     1   --> B_1  G_3 D_2   
     e( 10 - 10) =    -32.21043  eV     1   --> A_1  G_1 D_1   
     e( 11 - 12) =    -32.19763  eV     2   --> E    G_5 D_5   
     e( 13 - 13) =      2.85809  eV     1   --> B_1  G_3 D_2   
     e( 14 - 14) =      2.88209  eV     1   --> A_1  G_1 D_1   
     e( 15 - 15) =      2.89191  eV     1   --> B_2  G_4 D_2'  
     e( 16 - 17) =      2.90139  eV     2   --> E    G_5 D_5   
     e( 18 - 18) =      8.71638  eV     1   --> A_1  G_1 D_1   
     e( 19 - 19) =     13.87481  eV     1   --> A_1  G_1 D_1   
     e( 20 - 20) =     14.76710  eV     1   --> A_1  G_1 D_1   
     e( 21 - 21) =     15.34569  eV     1   --> B_2  G_4 D_2'  
     e( 22 - 23) =     15.36817  eV     2   --> E    G_5 D_5   
     e( 24 - 24) =     15.67485  eV     1   --> B_1  G_3 D_2   
     e( 25 - 26) =     17.18735  eV     2   --> E    G_5 D_5   
     e( 27 - 27) =     17.49541  eV     1   --> A_1  G_1 D_1   
     e( 28 - 28) =     17.73574  eV     1   --> B_2  G_4 D_2'  
     e( 29 - 29) =     18.70850  eV     1   --> A_1  G_1 D_1   
     e( 30 - 31) =     18.85519  eV     2   --> E    G_5 D_5   
     e( 32 - 32) =     18.92336  eV     1   --> B_1  G_3 D_2   
     e( 33 - 33) =     19.28864  eV     1   --> B_1  G_3 D_2   
     e( 34 - 34) =     20.16929  eV     1   --> A_2  G_2 D_1'  
     e( 35 - 36) =     21.53108  eV     2   --> E    G_5 D_5   
     e( 37 - 37) =     21.88991  eV     1   --> A_1  G_1 D_1   
     e( 38 - 38) =     25.65395  eV     1   --> B_1  G_3 D_2   
     e( 39 - 39) =     26.70202  eV     1   --> A_1  G_1 D_1   
     e( 40 - 41) =     27.61579  eV     2   --> E    G_5 D_5   

 **************************************************************************

 **************************************************************************

                    xk=(   0.00000,   0.23333,   0.00000  )

     Band symmetry, C_4v (4mm)  point group:

     e(  1 -  1) =    -78.12249  eV     1   --> A_1  G_1 D_1   
     e(  2 -  2) =    -78.11077  eV     1   --> A_1  G_1 D_1   
     e(  3 -  3) =    -78.10907  eV     1   --> B_1  G_3 D_2   
     e(  4 -  5) =    -32.36281  eV     2   --> E    G_5 D_5   
     e(  6 -  6) =    -32.35437  eV     1   --> A_1  G_1 D_1   
     e(  7 -  8) =    -32.28629  eV     2   --> E    G_5 D_5   
     e(  9 -  9) =    -32.28332  eV     1   --> B_1  G_3 D_2   
     e( 10 - 10) =    -32.21192  eV     1   --> A_1  G_1 D_1   
     e( 11 - 12) =    -32.19816  eV     2   --> E    G_5 D_5   
     e( 13 - 13) =      2.85900  eV     1   --> B_1  G_3 D_2   
     e( 14 - 14) =      2.88449  eV     1   --> A_1  G_1 D_1   
     e( 15 - 15) =      2.89210  eV     1   --> B_2  G_4 D_2'  
     e( 16 - 17) =      2.90216  eV     2   --> E    G_5 D_5   
     e( 18 - 18) =      8.75124  eV     1   --> A_1  G_1 D_1   
     e( 19 - 19) =     13.86192  eV     1   --> A_1  G_1 D_1   
     e( 20 - 20) =     14.74402  eV     1   --> A_1  G_1 D_1   
     e( 21 - 21) =     15.35130  eV     1   --> B_2  G_4 D_2'  
     e( 22 - 23) =     15.37383  eV     2   --> E    G_5 D_5   
     e( 24 - 24) =     15.70394  eV     1   --> B_1  G_3 D_2   
     e( 25 - 26) =     17.16178  eV     2   --> E    G_5 D_5   
     e( 27 - 27) =     17.45092  eV     1   --> A_1  G_1 D_1   
     e( 28 - 28) =     17.72464  eV     1   --> B_2  G_4 D_2'  
     e( 29 - 29) =     18.67942  eV     1   --> A_1  G_1 D_1   
     e( 30 - 31) =     18.82010  eV     2   --> E    G_5 D_5   
     e( 32 - 32) =     18.91058  eV     1   --> B_1  G_3 D_2   
     e( 33 - 33) =     19.26643  eV     1   --> B_1  G_3 D_2   
     e( 34 - 34) =     20.16936  eV     1   --> A_2  G_2 D_1'  
     e( 35 - 36) =     21.61520  eV     2   --> E    G_5 D_5   
     e( 37 - 37) =     21.86040  eV     1   --> A_1  G_1 D_1   
     e( 38 - 38) =     25.64244  eV     1   --> B_1  G_3 D_2   
     e( 39 - 39) =     26.79120  eV     1   --> A_1  G_1 D_1   
     e( 40 - 41) =     27.56811  eV     2   --> E    G_5 D_5   

 **************************************************************************

 **************************************************************************

                    xk=(   0.00000,   0.24167,   0.00000  )

     Band symmetry, C_4v (4mm)  point group:

     e(  1 -  1) =    -78.12238  eV     1   --> A_1  G_1 D_1   
     e(  2 -  2) =    -78.11088  eV     1   --> A_1  G_1 D_1   
     e(  3 -  3) =    -78.10907  eV     1   --> B_1  G_3 D_2   
     e(  4 -  5) =    -32.36201  eV     2   --> E    G_5 D_5   
     e(  6 -  6) =    -32.35294  eV     1   --> A_1  G_1 D_1   
     e(  7 -  8) =    -32.28657  eV     2   --> E    G_5 D_5   
     e(  9 -  9) =    -32.28336  eV     1   --> B_1  G_3 D_2   
     e( 10 - 10) =    -32.21346  eV     1   --> A_1  G_1 D_1   
     e( 11 - 12) =    -32.19870  eV     2   --> E    G_5 D_5   
     e( 13 - 13) =      2.85993  eV     1   --> B_1  G_3 D_2   
     e( 14 - 14) =      2.88689  eV     1   --> A_1  G_1 D_1   
     e( 15 - 15) =      2.89229  eV     1   --> B_2  G_4 D_2'  
     e( 16 - 17) =      2.90294  eV     2   --> E    G_5 D_5   
     e( 18 - 18) =      8.78707  eV     1   --> A_1  G_1 D_1   
     e( 19 - 19) =     13.84377  eV     1   --> A_1  G_1 D_1   
     e( 20 - 20) =     14.72463  eV     1   --> A_1  G_1 D_1   
     e( 21 - 21) =     15.35697  eV     1   --> B_2  G_4 D_2'  
     e( 22 - 23) =     15.37935  eV     2   --> E    G_5 D_5   
     e( 24 - 24) =     15.73387  eV     1   --> B_1  G_3 D_2   
     e( 25 - 26) =     17.13756  eV     2   --> E    G_5 D_5   
     e( 27 - 27) =     17.40963  eV     1   --> A_1  G_1 D_1   
     e( 28 - 28) =     17.71344  eV     1   --> B_2  G_4 D_2'  
     e( 29 - 29) =     18.64961  eV     1   --> A_1  G_1 D_1   
     e( 30 - 31) =     18.78445  eV     2   --> E    G_5 D_5   
     e( 32 - 32) =     18.89577  eV     1   --> B_1  G_3 D_2   
     e( 33 - 33) =     19.24530  eV     1   --> B_1  G_3 D_2   
     e( 34 - 34) =     20.16944  eV     1   --> A_2  G_2 D_1'  
     e( 35 - 36) =     21.70034  eV     2   --> E    G_5 D_5   
     e( 37 - 37) =     21.82847  eV     1   --> A_1  G_1 D_1   
     e( 38 - 38) =     25.63081  eV     1   --> B_1  G_3 D_2   
     e( 39 - 39) =     26.88061  eV     1   --> A_1  G_1 D_1   
     e( 40 - 41) =     27.51720  eV     2   --> E    G_5 D_5   

 **************************************************************************

 **************************************************************************

                    xk=(   0.00000,   0.25000,   0.00000  )

     Band symmetry, C_4v (4mm)  point group:

     e(  1 -  1) =    -78.12226  eV     1   --> A_1  G_1 D_1   
     e(  2 -  2) =    -78.11100  eV     1   --> A_1  G_1 D_1   
     e(  3 -  3) =    -78.10907  eV     1   --> B_1  G_3 D_2   
     e(  4 -  5) =    -32.36119  eV     2   --> E    G_5 D_5   
     e(  6 -  6) =    -32.35149  eV     1   --> A_1  G_1 D_1   
     e(  7 -  8) =    -32.28686  eV     2   --> E    G_5 D_5   
     e(  9 -  9) =    -32.28340  eV     1   --> B_1  G_3 D_2   
     e( 10 - 10) =    -32.21502  eV     1   --> A_1  G_1 D_1   
     e( 11 - 12) =    -32.19924  eV     2   --> E    G_5 D_5   
     e( 13 - 13) =      2.86085  eV     1   --> B_1  G_3 D_2   
     e( 14 - 14) =      2.88931  eV     1   --> A_1  G_1 D_1   
     e( 15 - 15) =      2.89248  eV     1   --> B_2  G_4 D_2'  
     e( 16 - 17) =      2.90372  eV     2   --> E    G_5 D_5   
     e( 18 - 18) =      8.82386  eV     1   --> A_1  G_1 D_1   
     e( 19 - 19) =     13.81998  eV     1   --> A_1  G_1 D_1   
     e( 20 - 20) =     14.70945  eV     1   --> A_1  G_1 D_1   
     e( 21 - 21) =     15.36272  eV     1   --> B_2  G_4 D_2'  
     e( 22 - 23) =     15.38469  eV     2   --> E    G_5 D_5   
     e( 24 - 24) =     15.76459  eV     1   --> B_1  G_3 D_2   
     e( 25 - 26) =     17.11476  eV     2   --> E    G_5 D_5   
     e( 27 - 27) =     17.37144  eV     1   --> A_1  G_1 D_1   
     e( 28 - 28) =     17.70217  eV     1   --> B_2  G_4 D_2'  
     e( 29 - 29) =     18.61912  eV     1   --> A_1  G_1 D_1   
     e( 30 - 31) =     18.74835  eV     2   --> E    G_5 D_5   
     e( 32 - 32) =     18.87871  eV     1   --> B_1  G_3 D_2   
     e( 33 - 33) =     19.22551  eV     1   --> B_1  G_3 D_2   
     e( 34 - 34) =     20.16951  eV     1   --> A_2  G_2 D_1'  
     e( 35 - 36) =     21.78643  eV     2   --> E    G_5 D_5   
     e( 37 - 37) =     21.79452  eV     1   --> A_1  G_1 D_1   
     e( 38 - 38) =     25.61910  eV     1   --> B_1  G_3 D_2   
     e( 39 - 39) =     26.96956  eV     1   --> A_1  G_1 D_1   
     e( 40 - 41) =     27.46324  eV     2   --> E    G_5 D_5   

 **************************************************************************

 **************************************************************************

                    xk=(   0.00000,   0.25833,   0.00000  )

     Band symmetry, C_4v (4mm)  point group:

     e(  1 -  1) =    -78.12214  eV     1   --> A_1  G_1 D_1   
     e(  2 -  2) =    -78.11112  eV     1   --> A_1  G_1 D_1   
     e(  3 -  3) =    -78.10907  eV     1   --> B_1  G_3 D_2   
     e(  4 -  5) =    -32.36036  eV     2   --> E    G_5 D_5   
     e(  6 -  6) =    -32.34999  eV     1   --> A_1  G_1 D_1   
     e(  7 -  8) =    -32.28715  eV     2   --> E    G_5 D_5   
     e(  9 -  9) =    -32.28344  eV     1   --> B_1  G_3 D_2   
     e( 10 - 10) =    -32.21663  eV     1   --> A_1  G_1 D_1   
     e( 11 - 12) =    -32.19978  eV     2   --> E    G_5 D_5   
     e( 13 - 13) =      2.86177  eV     1   --> B_1  G_3 D_2   
     e( 14 - 14) =      2.89172  eV     1   --> A_1  G_1 D_1   
     e( 15 - 15) =      2.89267  eV     1   --> B_2  G_4 D_2'  
     e( 16 - 17) =      2.90450  eV     2   --> E    G_5 D_5   
     e( 18 - 18) =      8.86154  eV     1   --> A_1  G_1 D_1   
     e( 19 - 19) =     13.79040  eV     1   --> A_1  G_1 D_1   
     e( 20 - 20) =     14.69878  eV     1   --> A_1  G_1 D_1   
     e( 21 - 21) =     15.36851  eV     1   --> B_2  G_4 D_2'  
     e( 22 - 23) =     15.38983  eV     2   --> E    G_5 D_5   
     e( 24 - 24) =     15.79607  eV     1   --> B_1  G_3 D_2   
     e( 25 - 26) =     17.09340  eV     2   --> E    G_5 D_5   
     e( 27 - 27) =     17.33626  eV     1   --> A_1  G_1 D_1   
     e( 28 - 28) =     17.69086  eV     1   --> B_2  G_4 D_2'  
     e( 29 - 29) =     18.58800  eV     1   --> A_1  G_1 D_1   
     e( 30 - 31) =     18.71186  eV     2   --> E    G_5 D_5   
     e( 32 - 32) =     18.85925  eV     1   --> B_1  G_3 D_2   
     e( 33 - 33) =     19.20727  eV     1   --> B_1  G_3 D_2   
     e( 34 - 34) =     20.16959  eV     1   --> A_2  G_2 D_1'  
     e( 35 - 35) =     21.75895  eV     1   --> A_1  G_1 D_1   
     e( 36 - 37) =     21.87337  eV     2   --> E    G_5 D_5   
     e( 38 - 38) =     25.60734  eV     1   --> B_1  G_3 D_2   
     e( 39 - 39) =     27.05736  eV     1   --> A_1  G_1 D_1   
     e( 40 - 41) =     27.40643  eV     2   --> E    G_5 D_5   

 **************************************************************************

 **************************************************************************

                    xk=(   0.00000,   0.26667,   0.00000  )

     Band symmetry, C_4v (4mm)  point group:

     e(  1 -  1) =    -78.12202  eV     1   --> A_1  G_1 D_1   
     e(  2 -  2) =    -78.11124  eV     1   --> A_1  G_1 D_1   
     e(  3 -  3) =    -78.10907  eV     1   --> B_1  G_3 D_2   
     e(  4 -  5) =    -32.35953  eV     2   --> E    G_5 D_5   
     e(  6 -  6) =    -32.34847  eV     1   --> A_1  G_1 D_1   
     e(  7 -  8) =    -32.28746  eV     2   --> E    G_5 D_5   
     e(  9 -  9) =    -32.28348  eV     1   --> B_1  G_3 D_2   
     e( 10 - 10) =    -32.21826  eV     1   --> A_1  G_1 D_1   
     e( 11 - 12) =    -32.20032  eV     2   --> E    G_5 D_5   
     e( 13 - 13) =      2.86270  eV     1   --> B_1  G_3 D_2   
     e( 14 - 14) =      2.89286  eV     1   --> B_2  G_4 D_2'  
     e( 15 - 15) =      2.89413  eV     1   --> A_1  G_1 D_1   
     e( 16 - 17) =      2.90528  eV     2   --> E    G_5 D_5   
     e( 18 - 18) =      8.90007  eV     1   --> A_1  G_1 D_1   
     e( 19 - 19) =     13.75512  eV     1   --> A_1  G_1 D_1   
     e( 20 - 20) =     14.69270  eV     1   --> A_1  G_1 D_1   
     e( 21 - 21) =     15.37434  eV     1   --> B_2  G_4 D_2'  
     e( 22 - 23) =     15.39473  eV     2   --> E    G_5 D_5   
     e( 24 - 24) =     15.82828  eV     1   --> B_1  G_3 D_2   
     e( 25 - 26) =     17.07355  eV     2   --> E    G_5 D_5   
     e( 27 - 27) =     17.30396  eV     1   --> A_1  G_1 D_1   
     e( 28 - 28) =     17.67954  eV     1   --> B_2  G_4 D_2'  
     e( 29 - 29) =     18.55630  eV     1   --> A_1  G_1 D_1   
     e( 30 - 31) =     18.67510  eV     2   --> E    G_5 D_5   
     e( 32 - 32) =     18.83730  eV     1   --> B_1  G_3 D_2   
     e( 33 - 33) =     19.19072  eV     1   --> B_1  G_3 D_2   
[...]

 **************************************************************************

                    xk=(   0.50000,   0.50000,   0.05833  )

     Band symmetry, C_4v (4mm)  point group:

     e(  1 -  3) =    -78.11410  eV     3   --> B_2  G_4 D_2'  
     e(  1 -  3) =    -78.11410  eV     3   --> E    G_5 D_5   
     e(  4 -  4) =    -32.37318  eV     1   --> A_1  G_1 D_1   
     e(  5 -  5) =    -32.33761  eV     1   --> B_2  G_4 D_2'  
     e(  6 -  7) =    -32.31011  eV     2   --> E    G_5 D_5   
     e(  8 -  9) =    -32.28229  eV     2   --> E    G_5 D_5   
     e( 10 - 10) =    -32.25243  eV     1   --> B_2  G_4 D_2'  
     e( 11 - 11) =    -32.22033  eV     1   --> B_1  G_3 D_2   
     e( 12 - 12) =    -32.18303  eV     1   --> A_2  G_2 D_1'  
     e( 13 - 13) =      2.85578  eV     1   --> B_2  G_4 D_2'  
     e( 14 - 14) =      2.91439  eV     1   --> A_1  G_1 D_1   
     e( 15 - 16) =      2.91677  eV     2   --> E    G_5 D_5   
     e( 17 - 17) =      2.99210  eV     1   --> B_1  G_3 D_2   
     e( 18 - 18) =     10.59186  eV     1   --> A_1  G_1 D_1   
     e( 19 - 20) =     13.90231  eV     2   --> E    G_5 D_5   
     e( 21 - 21) =     15.14413  eV     1   --> A_1  G_1 D_1   
     e( 22 - 22) =     15.73626  eV     1   --> B_2  G_4 D_2'  
     e( 23 - 24) =     16.05997  eV     2   --> E    G_5 D_5   
     e( 25 - 25) =     16.34309  eV     1   --> B_2  G_4 D_2'  
     e( 26 - 27) =     17.04389  eV     2   --> E    G_5 D_5   
     e( 28 - 28) =     17.56099  eV     1   --> A_2  G_2 D_1'  
     e( 29 - 30) =     17.77320  eV     2   --> E    G_5 D_5   
     e( 31 - 31) =     18.06062  eV     1   --> B_2  G_4 D_2'  
     e( 32 - 32) =     18.25948  eV     1   --> B_1  G_3 D_2   
     e( 33 - 33) =     18.52227  eV     1   --> A_2  G_2 D_1'  
     e( 34 - 34) =     18.65305  eV     1   --> A_1  G_1 D_1   
     e( 35 - 36) =     20.87313  eV     2   --> E    G_5 D_5   
     e( 37 - 37) =     24.31633  eV     1   --> A_1  G_1 D_1   
     e( 38 - 39) =     26.77103  eV     2   --> E    G_5 D_5   
     e( 40 - 40) =     27.15060  eV     1   --> A_1  G_1 D_1   
     e( 41 - 41) =     28.53013  eV     1   --> B_2  G_4 D_2'  

 **************************************************************************

 **************************************************************************

                    xk=(   0.50000,   0.50000,   0.05000  )

     Band symmetry, C_4v (4mm)  point group:

     e(  1 -  3) =    -78.11410  eV     3   --> B_2  G_4 D_2'  
     e(  1 -  3) =    -78.11410  eV     3   --> E    G_5 D_5   
     e(  4 -  4) =    -32.37318  eV     1   --> A_1  G_1 D_1   
     e(  5 -  5) =    -32.33645  eV     1   --> B_2  G_4 D_2'  
     e(  6 -  7) =    -32.30814  eV     2   --> E    G_5 D_5   
     e(  8 -  9) =    -32.28425  eV     2   --> E    G_5 D_5   
     e( 10 - 10) =    -32.25359  eV     1   --> B_2  G_4 D_2'  
     e( 11 - 11) =    -32.22033  eV     1   --> B_1  G_3 D_2   
     e( 12 - 12) =    -32.18303  eV     1   --> A_2  G_2 D_1'  
     e( 13 - 13) =      2.85585  eV     1   --> B_2  G_4 D_2'  
     e( 14 - 14) =      2.91384  eV     1   --> A_1  G_1 D_1   
     e( 15 - 16) =      2.91740  eV     2   --> E    G_5 D_5   
     e( 17 - 17) =      2.99225  eV     1   --> B_1  G_3 D_2   
     e( 18 - 18) =     10.59567  eV     1   --> A_1  G_1 D_1   
     e( 19 - 20) =     13.89503  eV     2   --> E    G_5 D_5   
     e( 21 - 21) =     15.13173  eV     1   --> A_1  G_1 D_1   
     e( 22 - 22) =     15.77670  eV     1   --> B_2  G_4 D_2'  
     e( 23 - 24) =     16.05898  eV     2   --> E    G_5 D_5   
     e( 25 - 25) =     16.29766  eV     1   --> B_2  G_4 D_2'  
     e( 26 - 27) =     17.05516  eV     2   --> E    G_5 D_5   
     e( 28 - 28) =     17.58013  eV     1   --> A_2  G_2 D_1'  
     e( 29 - 30) =     17.75696  eV     2   --> E    G_5 D_5   
     e( 31 - 31) =     18.05277  eV     1   --> B_2  G_4 D_2'  
     e( 32 - 32) =     18.25879  eV     1   --> B_1  G_3 D_2   
     e( 33 - 33) =     18.50025  eV     1   --> A_2  G_2 D_1'  
     e( 34 - 34) =     18.65313  eV     1   --> A_1  G_1 D_1   
     e( 35 - 36) =     20.87869  eV     2   --> E    G_5 D_5   
     e( 37 - 37) =     24.40869  eV     1   --> A_1  G_1 D_1   
     e( 38 - 39) =     26.88152  eV     2   --> E    G_5 D_5   
     e( 40 - 40) =     27.04877  eV     1   --> A_1  G_1 D_1   
     e( 41 - 41) =     28.63084  eV     1   --> B_2  G_4 D_2'  

 **************************************************************************

 **************************************************************************

                    xk=(   0.50000,   0.50000,   0.04167  )

     Band symmetry, C_4v (4mm)  point group:

     e(  1 -  3) =    -78.11410  eV     3   --> B_2  G_4 D_2'  
     e(  1 -  3) =    -78.11410  eV     3   --> E    G_5 D_5   
     e(  4 -  4) =    -32.37319  eV     1   --> A_1  G_1 D_1   
     e(  5 -  5) =    -32.33544  eV     1   --> B_2  G_4 D_2'  
     e(  6 -  7) =    -32.30617  eV     2   --> E    G_5 D_5   
     e(  8 -  9) =    -32.28622  eV     2   --> E    G_5 D_5   
     e( 10 - 10) =    -32.25460  eV     1   --> B_2  G_4 D_2'  
     e( 11 - 11) =    -32.22033  eV     1   --> B_1  G_3 D_2   
     e( 12 - 12) =    -32.18303  eV     1   --> A_2  G_2 D_1'  
     e( 13 - 13) =      2.85591  eV     1   --> B_2  G_4 D_2'  
     e( 14 - 14) =      2.91338  eV     1   --> A_1  G_1 D_1   
     e( 15 - 16) =      2.91794  eV     2   --> E    G_5 D_5   
     e( 17 - 17) =      2.99238  eV     1   --> B_1  G_3 D_2   
     e( 18 - 18) =     10.59892  eV     1   --> A_1  G_1 D_1   
     e( 19 - 20) =     13.88884  eV     2   --> E    G_5 D_5   
     e( 21 - 21) =     15.12120  eV     1   --> A_1  G_1 D_1   
     e( 22 - 22) =     15.81764  eV     1   --> B_2  G_4 D_2'  
     e( 23 - 24) =     16.05816  eV     2   --> E    G_5 D_5   
     e( 25 - 25) =     16.25247  eV     1   --> B_2  G_4 D_2'  
     e( 26 - 27) =     17.06527  eV     2   --> E    G_5 D_5   
     e( 28 - 28) =     17.59715  eV     1   --> A_2  G_2 D_1'  
     e( 29 - 30) =     17.74263  eV     2   --> E    G_5 D_5   
     e( 31 - 31) =     18.04613  eV     1   --> B_2  G_4 D_2'  
     e( 32 - 32) =     18.25820  eV     1   --> B_1  G_3 D_2   
     e( 33 - 33) =     18.48077  eV     1   --> A_2  G_2 D_1'  
     e( 34 - 34) =     18.65319  eV     1   --> A_1  G_1 D_1   
     e( 35 - 36) =     20.88337  eV     2   --> E    G_5 D_5   
     e( 37 - 37) =     24.49297  eV     1   --> A_1  G_1 D_1   
     e( 38 - 38) =     26.95646  eV     1   --> A_1  G_1 D_1   
     e( 39 - 40) =     26.98636  eV     2   --> E    G_5 D_5   
     e( 41 - 41) =     28.72254  eV     1   --> B_2  G_4 D_2'  

 **************************************************************************

 **************************************************************************

                    xk=(   0.50000,   0.50000,   0.03333  )

     Band symmetry, C_4v (4mm)  point group:

     e(  1 -  3) =    -78.11410  eV     3   --> B_2  G_4 D_2'  
     e(  1 -  3) =    -78.11410  eV     3   --> E    G_5 D_5   
     e(  4 -  4) =    -32.37319  eV     1   --> A_1  G_1 D_1   
     e(  5 -  5) =    -32.33460  eV     1   --> B_2  G_4 D_2'  
     e(  6 -  7) =    -32.30419  eV     2   --> E    G_5 D_5   
     e(  8 -  9) =    -32.28820  eV     2   --> E    G_5 D_5   
     e( 10 - 10) =    -32.25545  eV     1   --> B_2  G_4 D_2'  
     e( 11 - 11) =    -32.22033  eV     1   --> B_1  G_3 D_2   
     e( 12 - 12) =    -32.18304  eV     1   --> A_2  G_2 D_1'  
     e( 13 - 13) =      2.85595  eV     1   --> B_2  G_4 D_2'  
     e( 14 - 14) =      2.91299  eV     1   --> A_1  G_1 D_1   
     e( 15 - 16) =      2.91838  eV     2   --> E    G_5 D_5   
     e( 17 - 17) =      2.99248  eV     1   --> B_1  G_3 D_2   
     e( 18 - 18) =     10.60160  eV     1   --> A_1  G_1 D_1   
     e( 19 - 20) =     13.88375  eV     2   --> E    G_5 D_5   
     e( 21 - 21) =     15.11257  eV     1   --> A_1  G_1 D_1   
     e( 22 - 22) =     15.85903  eV     1   --> B_2  G_4 D_2'  
     e( 23 - 24) =     16.05751  eV     2   --> E    G_5 D_5   
     e( 25 - 25) =     16.20757  eV     1   --> B_2  G_4 D_2'  
     e( 26 - 27) =     17.07397  eV     2   --> E    G_5 D_5   
     e( 28 - 28) =     17.61172  eV     1   --> A_2  G_2 D_1'  
     e( 29 - 30) =     17.73046  eV     2   --> E    G_5 D_5   
     e( 31 - 31) =     18.04070  eV     1   --> B_2  G_4 D_2'  
     e( 32 - 32) =     18.25772  eV     1   --> B_1  G_3 D_2   
     e( 33 - 33) =     18.46418  eV     1   --> A_2  G_2 D_1'  
     e( 34 - 34) =     18.65323  eV     1   --> A_1  G_1 D_1   
     e( 35 - 36) =     20.88718  eV     2   --> E    G_5 D_5   
     e( 37 - 37) =     24.56706  eV     1   --> A_1  G_1 D_1   
     e( 38 - 38) =     26.87579  eV     1   --> A_1  G_1 D_1   
     e( 39 - 40) =     27.08276  eV     2   --> E    G_5 D_5   
     e( 41 - 41) =     28.80297  eV     1   --> B_2  G_4 D_2'  

 **************************************************************************

 **************************************************************************

                    xk=(   0.50000,   0.50000,   0.02500  )

     Band symmetry, C_4v (4mm)  point group:

     e(  1 -  3) =    -78.11410  eV     3   --> B_2  G_4 D_2'  
     e(  1 -  3) =    -78.11410  eV     3   --> E    G_5 D_5   
     e(  4 -  4) =    -32.37319  eV     1   --> A_1  G_1 D_1   
     e(  5 -  5) =    -32.33392  eV     1   --> B_2  G_4 D_2'  
     e(  6 -  7) =    -32.30221  eV     2   --> E    G_5 D_5   
     e(  8 -  9) =    -32.29017  eV     2   --> E    G_5 D_5   
     e( 10 - 10) =    -32.25612  eV     1   --> B_2  G_4 D_2'  
     e( 11 - 11) =    -32.22033  eV     1   --> B_1  G_3 D_2   
     e( 12 - 12) =    -32.18304  eV     1   --> A_2  G_2 D_1'  
     e( 13 - 13) =      2.85599  eV     1   --> B_2  G_4 D_2'  
     e( 14 - 14) =      2.91269  eV     1   --> A_1  G_1 D_1   
     e( 15 - 16) =      2.91872  eV     2   --> E    G_5 D_5   
     e( 17 - 17) =      2.99257  eV     1   --> B_1  G_3 D_2   
     e( 18 - 18) =     10.60369  eV     1   --> A_1  G_1 D_1   
     e( 19 - 20) =     13.87978  eV     2   --> E    G_5 D_5   
     e( 21 - 21) =     15.10584  eV     1   --> A_1  G_1 D_1   
     e( 22 - 22) =     15.90083  eV     1   --> B_2  G_4 D_2'  
     e( 23 - 24) =     16.05700  eV     2   --> E    G_5 D_5   
     e( 25 - 25) =     16.16304  eV     1   --> B_2  G_4 D_2'  
     e( 26 - 27) =     17.08103  eV     2   --> E    G_5 D_5   
     e( 28 - 28) =     17.62350  eV     1   --> A_2  G_2 D_1'  
     e( 29 - 30) =     17.72069  eV     2   --> E    G_5 D_5   
     e( 31 - 31) =     18.03648  eV     1   --> B_2  G_4 D_2'  
     e( 32 - 32) =     18.25734  eV     1   --> B_1  G_3 D_2   
     e( 33 - 33) =     18.45084  eV     1   --> A_2  G_2 D_1'  
     e( 34 - 34) =     18.65327  eV     1   --> A_1  G_1 D_1   
     e( 35 - 36) =     20.89013  eV     2   --> E    G_5 D_5   
     e( 37 - 37) =     24.62855  eV     1   --> A_1  G_1 D_1   
     e( 38 - 38) =     26.80916  eV     1   --> A_1  G_1 D_1   
     e( 39 - 40) =     27.16683  eV     2   --> E    G_5 D_5   
     e( 41 - 41) =     28.75238  eV     1   -->   ?

 **************************************************************************

 **************************************************************************

                    xk=(   0.50000,   0.50000,   0.01667  )

     Band symmetry, C_4v (4mm)  point group:

     e(  1 -  3) =    -78.11410  eV     3   --> B_2  G_4 D_2'  
     e(  1 -  3) =    -78.11410  eV     3   --> E    G_5 D_5   
     e(  4 -  4) =    -32.37319  eV     1   --> A_1  G_1 D_1   
     e(  5 -  5) =    -32.33343  eV     1   --> B_2  G_4 D_2'  
     e(  6 -  7) =    -32.30024  eV     2   --> E    G_5 D_5   
     e(  8 -  9) =    -32.29215  eV     2   --> E    G_5 D_5   
     e( 10 - 10) =    -32.25662  eV     1   --> B_2  G_4 D_2'  
     e( 11 - 11) =    -32.22033  eV     1   --> B_1  G_3 D_2   
     e( 12 - 12) =    -32.18304  eV     1   --> A_2  G_2 D_1'  
     e( 13 - 13) =      2.85602  eV     1   --> B_2  G_4 D_2'  
     e( 14 - 14) =      2.91248  eV     1   --> A_1  G_1 D_1   
     e( 15 - 16) =      2.91897  eV     2   --> E    G_5 D_5   
     e( 17 - 17) =      2.99263  eV     1   --> B_1  G_3 D_2   
     e( 18 - 18) =     10.60519  eV     1   --> A_1  G_1 D_1   
     e( 19 - 20) =     13.87693  eV     2   --> E    G_5 D_5   
     e( 21 - 21) =     15.10102  eV     1   --> A_1  G_1 D_1   
     e( 22 - 22) =     15.94291  eV     1   --> B_2  G_4 D_2'  
     e( 23 - 24) =     16.05664  eV     2   --> E    G_5 D_5   
     e( 25 - 25) =     16.11900  eV     1   --> B_2  G_4 D_2'  
     e( 26 - 27) =     17.08624  eV     2   --> E    G_5 D_5   
     e( 28 - 28) =     17.63217  eV     1   --> A_2  G_2 D_1'  
     e( 29 - 30) =     17.71354  eV     2   --> E    G_5 D_5   
     e( 31 - 31) =     18.03347  eV     1   --> B_2  G_4 D_2'  
     e( 32 - 32) =     18.25707  eV     1   --> B_1  G_3 D_2   
     e( 33 - 33) =     18.44104  eV     1   --> A_2  G_2 D_1'  
     e( 34 - 34) =     18.65329  eV     1   --> A_1  G_1 D_1   
     e( 35 - 36) =     20.89223  eV     2   --> E    G_5 D_5   
     e( 37 - 37) =     24.67492  eV     1   --> A_1  G_1 D_1   
     e( 38 - 38) =     26.75912  eV     1   --> A_1  G_1 D_1   
     e( 39 - 40) =     27.23350  eV     2   --> E    G_5 D_5   
     e( 41 - 41) =     28.68062  eV     1   -->   ?

 **************************************************************************

 **************************************************************************

                    xk=(   0.50000,   0.50000,   0.00833  )

     Band symmetry, C_4v (4mm)  point group:

     e(  1 -  3) =    -78.11410  eV     3   --> B_2  G_4 D_2'  
     e(  1 -  3) =    -78.11410  eV     3   --> E    G_5 D_5   
     e(  4 -  4) =    -32.37319  eV     1   --> A_1  G_1 D_1   
     e(  5 -  5) =    -32.33313  eV     1   --> B_2  G_4 D_2'  
     e(  6 -  7) =    -32.29830  eV     2   --> E    G_5 D_5   
     e(  8 -  9) =    -32.29408  eV     2   --> E    G_5 D_5   
     e( 10 - 10) =    -32.25691  eV     1   --> B_2  G_4 D_2'  
     e( 11 - 11) =    -32.22033  eV     1   --> B_1  G_3 D_2   
     e( 12 - 12) =    -32.18304  eV     1   --> A_2  G_2 D_1'  
     e( 13 - 13) =      2.85603  eV     1   --> B_2  G_4 D_2'  
     e( 14 - 14) =      2.91235  eV     1   --> A_1  G_1 D_1   
     e( 15 - 16) =      2.91912  eV     2   --> E    G_5 D_5   
     e( 17 - 17) =      2.99266  eV     1   --> B_1  G_3 D_2   
     e( 18 - 18) =     10.60610  eV     1   --> A_1  G_1 D_1   
     e( 19 - 20) =     13.87523  eV     2   --> E    G_5 D_5   
     e( 21 - 21) =     15.09813  eV     1   --> A_1  G_1 D_1   
     e( 22 - 22) =     15.98474  eV     1   --> B_2  G_4 D_2'  
     e( 23 - 24) =     16.05643  eV     2   --> E    G_5 D_5   
     e( 25 - 25) =     16.07599  eV     1   --> B_2  G_4 D_2'  
     e( 26 - 27) =     17.08945  eV     2   --> E    G_5 D_5   
     e( 28 - 28) =     17.63749  eV     1   --> A_2  G_2 D_1'  
     e( 29 - 30) =     17.70917  eV     2   --> E    G_5 D_5   
     e( 31 - 31) =     18.03167  eV     1   --> B_2  G_4 D_2'  
     e( 32 - 32) =     18.25691  eV     1   --> B_1  G_3 D_2   
     e( 33 - 33) =     18.43505  eV     1   --> A_2  G_2 D_1'  
     e( 34 - 34) =     18.65330  eV     1   --> A_1  G_1 D_1   
     e( 35 - 36) =     20.89348  eV     2   --> E    G_5 D_5   
     e( 37 - 37) =     24.70386  eV     1   --> A_1  G_1 D_1   
     e( 38 - 38) =     26.72797  eV     1   --> A_1  G_1 D_1   
     e( 39 - 40) =     27.27694  eV     2   --> E    G_5 D_5   
     e( 41 - 41) =     28.63412  eV     1   -->   ?

 **************************************************************************

 **************************************************************************

                    xk=(   0.50000,   0.50000,   0.00000  )

     point group D_4h(4/mmm)
     there are 10 classes
     the character table:

       E     2C4   C2    2C2'  2C2'' i     2S4   s_h   2s_v  2s_d 
A_1g   1.00  1.00  1.00  1.00  1.00  1.00  1.00  1.00  1.00  1.00
A_2g   1.00  1.00  1.00 -1.00 -1.00  1.00  1.00  1.00 -1.00 -1.00
B_1g   1.00 -1.00  1.00  1.00 -1.00  1.00 -1.00  1.00  1.00 -1.00
B_2g   1.00 -1.00  1.00 -1.00  1.00  1.00 -1.00  1.00 -1.00  1.00
E_g    2.00  0.00 -2.00  0.00  0.00  2.00  0.00 -2.00  0.00  0.00
A_1u   1.00  1.00  1.00  1.00  1.00 -1.00 -1.00 -1.00 -1.00 -1.00
A_2u   1.00  1.00  1.00 -1.00 -1.00 -1.00 -1.00 -1.00  1.00  1.00
B_1u   1.00 -1.00  1.00  1.00 -1.00 -1.00  1.00 -1.00 -1.00  1.00
B_2u   1.00 -1.00  1.00 -1.00  1.00 -1.00  1.00 -1.00  1.00 -1.00
E_u    2.00  0.00 -2.00  0.00  0.00 -2.00  0.00  2.00  0.00  0.00

     the symmetry operations in each class and the name of the first element:

     E        1
                                                                 
     2C4      7    8
                                                                 
     C2       2
                                                                 
     2C2'     3    4
                                                                 
     2C2''    5    6
                                                                 
     i        9
                                                                 
     2S4     15   16
                                                                 
     s_h     10
                                                                 
     2s_v    11   12
                                                                 
     2s_d    13   14
                                                                 

     Band symmetry, D_4h(4/mmm) point group:

     e(  1 -  3) =    -78.11410  eV     3   --> B_2g X_3  M_3  
     e(  1 -  3) =    -78.11410  eV     3   --> E_u  X_5' M_5' 
     e(  4 -  4) =    -32.37319  eV     1   --> A_1g X_1  M_1  
     e(  5 -  5) =    -32.33303  eV     1   --> B_2g X_3  M_3  
     e(  6 -  7) =    -32.29687  eV     2   --> E_u  X_5' M_5' 
     e(  8 -  9) =    -32.29551  eV     2   --> E_g  X_5  M_5  
     e( 10 - 10) =    -32.25701  eV     1   --> B_1u X_2' M_2' 
     e( 11 - 11) =    -32.22033  eV     1   --> B_1g X_2  M_2  
     e( 12 - 12) =    -32.18304  eV     1   --> A_2g X_4  M_4  
     e( 13 - 13) =      2.85604  eV     1   --> B_2g X_3  M_3  
     e( 14 - 14) =      2.91231  eV     1   --> A_1g X_1  M_1  
     e( 15 - 16) =      2.91917  eV     2   --> E_g  X_5  M_5  
     e( 17 - 17) =      2.99267  eV     1   --> B_1g X_2  M_2  
     e( 18 - 18) =     10.60640  eV     1   --> A_1g X_1  M_1  
     e( 19 - 20) =     13.87466  eV     2   --> E_u  X_5' M_5' 
     e( 21 - 21) =     15.09716  eV     1   --> A_2u X_4' M_4' 
     e( 22 - 22) =     16.01638  eV     1   --> B_2g X_3  M_3  
     e( 23 - 23) =     16.04396  eV     1   --> B_1u X_2' M_2' 
     e( 24 - 25) =     16.05636  eV     2   --> E_u  X_5' M_5' 
     e( 26 - 27) =     17.09053  eV     2   --> E_g  X_5  M_5  
     e( 28 - 28) =     17.63928  eV     1   --> A_2g X_4  M_4  
     e( 29 - 30) =     17.70770  eV     2   --> E_u  X_5' M_5' 
     e( 31 - 31) =     18.03107  eV     1   --> B_2g X_3  M_3  
     e( 32 - 32) =     18.25686  eV     1   --> B_2u X_3' M_3' 
     e( 33 - 33) =     18.43303  eV     1   --> A_1u X_1' M_1' 
     e( 34 - 34) =     18.65330  eV     1   --> A_1g X_1  M_1  
     e( 35 - 36) =     20.89390  eV     2   --> E_u  X_5' M_5' 
     e( 37 - 37) =     24.71372  eV     1   --> A_1g X_1  M_1  
     e( 38 - 38) =     26.71738  eV     1   --> A_2u X_4' M_4' 
     e( 39 - 40) =     27.29211  eV     2   --> E_u  X_5' M_5' 
     e( 41 - 41) =     28.61794  eV     1   -->   ?

 **************************************************************************
 
     BANDS        :  1m19.90s CPU     1m22.27s WALL

 
   This run was terminated on:  13:37:30  16Apr2020            

=------------------------------------------------------------------------------=
   JOB DONE.
=------------------------------------------------------------------------------=
