mpijob CMD    : mpirun -f /tmp/mpiexec.params.k050801.20193
mpijob PARAMS : -d
        /home/k0508/k050801/research/dft/qeirreps/v2/qeirreps/reference/PbPt3_nonsoc
        r1i0n18 24 omplace -nt 1
        "/home/k0508/k050801/research/dft/qe-6.2/bin/pw.x"

SGI MPT Placement option
--------------------------
omplace -nt 1

Node   MPI
------------
r1i0n18 24


     Program PWSCF v.6.2 (svn rev. 13949:13950) starts on 16Apr2020 at 13:41:19 

     This program is part of the open-source Quantum ESPRESSO suite
     for quantum simulation of materials; please cite
         "P. Giannozzi et al., J. Phys.:Condens. Matter 21 395502 (2009);
         "P. Giannozzi et al., J. Phys.:Condens. Matter 29 465901 (2017);
          URL http://www.quantum-espresso.org", 
     in publications or presentations arising from this work. More details at
     http://www.quantum-espresso.org/quote

     Parallel version (MPI), running on    24 processors

     MPI processes distributed on     1 nodes
     R & G space division:  proc/nbgrp/npool/nimage =      24
     Waiting for input...
     Reading input from standard input

     Current dimensions of program PWSCF are:
     Max number of different atomic species (ntypx) = 10
     Max number of k-points (npk) =  40000
     Max angular momentum in pseudopotentials (lmaxx) =  3

     Atomic positions and unit cell read from directory:
     /work/k0508/k050801/rep/PbPt3_ns/PbPt3.save/
 

     Subspace diagonalization in iterative solution of the eigenvalue problem:
     a serial algorithm will be used

 
     Parallelization info
     --------------------
     sticks:   dense  smooth     PW     G-vecs:    dense   smooth      PW
     Min          80      80     23                 2674     2674     407
     Max          81      81     24                 2679     2679     410
     Sum        1941    1941    553                64229    64229    9795
 


     bravais-lattice index     =            0
     lattice parameter (alat)  =       7.8085  a.u.
     unit-cell volume          =     476.1138 (a.u.)^3
     number of atoms/cell      =            4
     number of atomic types    =            2
     number of electrons       =        68.00
     number of Kohn-Sham states=           41
     kinetic-energy cutoff     =     100.0000  Ry
     charge density cutoff     =     400.0000  Ry
     Exchange-correlation      = PBE ( 1  4  3  4 0 0)

     celldm(1)=   7.808548  celldm(2)=   0.000000  celldm(3)=   0.000000
     celldm(4)=   0.000000  celldm(5)=   0.000000  celldm(6)=   0.000000

     crystal axes: (cart. coord. in units of alat)
               a(1) = (   1.000000   0.000000   0.000000 )  
               a(2) = (   0.000000   1.000000   0.000000 )  
               a(3) = (   0.000000   0.000000   1.000000 )  

     reciprocal axes: (cart. coord. in units 2 pi/alat)
               b(1) = (  1.000000  0.000000  0.000000 )  
               b(2) = (  0.000000  1.000000  0.000000 )  
               b(3) = (  0.000000  0.000000  1.000000 )  


     PseudoPot. # 1 for Pt read from file:
     ../../pseudo/nonsoc/Pt.upf
     MD5 check sum: 3caa314b32314335c676ebce8d0bd64e
     Pseudo is Norm-conserving + core correction, Zval = 18.0
     Generated using ONCVPSP code by D. R. Hamann
     Using radial grid of 1374 points,  8 beta functions with: 
                l(1) =   0
                l(2) =   0
                l(3) =   1
                l(4) =   1
                l(5) =   2
                l(6) =   2
                l(7) =   3
                l(8) =   3

     PseudoPot. # 2 for Pb read from file:
     ../../pseudo/nonsoc/Pb.upf
     MD5 check sum: 465799cf2c9ea2062203eb79f5a7a375
     Pseudo is Norm-conserving + core correction, Zval = 14.0
     Generated using ONCVPSP code by D. R. Hamann
     Using radial grid of 1678 points,  6 beta functions with: 
                l(1) =   0
                l(2) =   0
                l(3) =   1
                l(4) =   1
                l(5) =   2
                l(6) =   2

     atomic species   valence    mass     pseudopotential
        Pt            18.00   195.08400     Pt( 1.00)
        Pb            14.00   207.20000     Pb( 1.00)

     48 Sym. Ops., with inversion, found



   Cartesian axes

     site n.     atom                  positions (alat units)
         1           Pt  tau(   1) = (   0.0000000   0.5000000   0.5000000  )
         2           Pt  tau(   2) = (   0.5000000   0.0000000   0.5000000  )
         3           Pt  tau(   3) = (   0.5000000   0.5000000   0.0000000  )
         4           Pb  tau(   4) = (   0.0000000   0.0000000   0.0000000  )

     number of k points=     8  Methfessel-Paxton smearing, width (Ry)=  0.0100
                       cart. coord. in units 2pi/alat
        k(    1) = (   0.0000000   0.0000000   0.0000000), wk =   0.2500000
        k(    2) = (   0.5000000   0.0000000   0.0000000), wk =   0.2500000
        k(    3) = (   0.0000000   0.5000000   0.0000000), wk =   0.2500000
        k(    4) = (   0.0000000   0.0000000   0.5000000), wk =   0.2500000
        k(    5) = (   0.0000000   0.5000000   0.5000000), wk =   0.2500000
        k(    6) = (   0.5000000   0.0000000   0.5000000), wk =   0.2500000
        k(    7) = (   0.5000000   0.5000000   0.0000000), wk =   0.2500000
        k(    8) = (   0.5000000   0.5000000   0.5000000), wk =   0.2500000

     Dense  grid:    64229 G-vectors     FFT dimensions: (  50,  50,  50)

     Estimated max dynamical RAM per process >      14.30 MB

     Estimated total dynamical RAM >     343.22 MB

     The potential is recalculated from file :
     /work/k0508/k050801/rep/PbPt3_ns/PbPt3.save/charge-density.dat

     Starting wfc are   39 randomized atomic wfcs +    2 random wfc

     Band Structure Calculation
     Davidson diagonalization with overlap

     ethr =  1.47E-11,  avg # of iterations = 15.0

     total cpu time spent up to now is        2.3 secs

     End of band structure calculation

          k = 0.0000 0.0000 0.0000 (  8121 PWs)   bands (ev):

   -78.1242 -78.1091 -78.1091 -32.3752 -32.3752 -32.3752 -32.2826 -32.2826
   -32.2826 -32.1892 -32.1892 -32.1892   2.8432   2.8432   2.8889   2.8889
     2.8889   8.2333  13.7329  15.2605  15.2605  15.2605  15.2713  15.2713
    17.9116  17.9116  17.9116  19.0032  19.0032  19.2908  19.2908  19.2908
    19.6956  20.1681  20.1681  20.1681  21.2965  25.8328  25.8328  27.8444
    27.8444

          k = 0.5000 0.0000 0.0000 (  8008 PWs)   bands (ev):

   -78.1191 -78.1141 -78.1091 -32.3422 -32.3422 -32.3102 -32.2954 -32.2954
   -32.2842 -32.2584 -32.2099 -32.2099   2.8785   2.8961   2.9187   2.9187
     2.9355   9.8289  12.4516  15.0759  15.4304  15.4304  15.4833  16.6333
    16.9923  16.9923  17.0400  17.4777  17.8608  17.9356  17.9356  18.0231
    19.0783  20.1709  21.0172  24.0616  24.0616  25.3886  25.5541  25.5541
    27.6109

          k = 0.0000 0.5000 0.0000 (  8008 PWs)   bands (ev):

   -78.1191 -78.1141 -78.1091 -32.3422 -32.3422 -32.3102 -32.2954 -32.2954
   -32.2842 -32.2584 -32.2099 -32.2099   2.8785   2.8961   2.9187   2.9187
     2.9355   9.8289  12.4516  15.0759  15.4304  15.4304  15.4833  16.6333
    16.9923  16.9923  17.0400  17.4777  17.8608  17.9356  17.9356  18.0231
    19.0783  20.1709  21.0172  24.0616  24.0616  25.3886  25.5541  25.5541
    27.6109

          k = 0.0000 0.0000 0.5000 (  8008 PWs)   bands (ev):

   -78.1191 -78.1141 -78.1091 -32.3422 -32.3422 -32.3102 -32.2954 -32.2954
   -32.2842 -32.2584 -32.2099 -32.2099   2.8785   2.8961   2.9187   2.9187
     2.9355   9.8289  12.4516  15.0759  15.4304  15.4304  15.4833  16.6333
    16.9923  16.9923  17.0400  17.4777  17.8608  17.9356  17.9356  18.0231
    19.0783  20.1709  21.0172  24.0616  24.0616  25.3886  25.5541  25.5541
    27.6109

          k = 0.0000 0.5000 0.5000 (  8020 PWs)   bands (ev):

   -78.1141 -78.1141 -78.1141 -32.3732 -32.3330 -32.2969 -32.2969 -32.2955
   -32.2955 -32.2570 -32.2203 -32.1830   2.8560   2.9123   2.9192   2.9192
     2.9927  10.6064  13.8747  13.8747  15.0972  16.0164  16.0440  16.0564
    16.0564  17.0905  17.0905  17.6393  17.7077  17.7077  18.0311  18.2569
    18.4330  18.6533  20.8939  20.8939  24.7137  26.7174  27.2921  27.2921
    28.6179

          k = 0.5000 0.0000 0.5000 (  8020 PWs)   bands (ev):

   -78.1141 -78.1141 -78.1141 -32.3732 -32.3330 -32.2969 -32.2969 -32.2955
   -32.2955 -32.2570 -32.2203 -32.1830   2.8560   2.9123   2.9192   2.9192
     2.9927  10.6064  13.8747  13.8747  15.0972  16.0164  16.0440  16.0564
    16.0564  17.0905  17.0905  17.6393  17.7077  17.7077  18.0311  18.2569
    18.4330  18.6533  20.8939  20.8939  24.7137  26.7174  27.2921  27.2921
    28.6179

          k = 0.5000 0.5000 0.0000 (  8020 PWs)   bands (ev):

   -78.1141 -78.1141 -78.1141 -32.3732 -32.3330 -32.2969 -32.2969 -32.2955
   -32.2955 -32.2570 -32.2203 -32.1830   2.8560   2.9123   2.9192   2.9192
     2.9927  10.6064  13.8747  13.8747  15.0972  16.0164  16.0440  16.0564
    16.0564  17.0905  17.0905  17.6393  17.7077  17.7077  18.0311  18.2569
    18.4330  18.6533  20.8939  20.8939  24.7137  26.7174  27.2921  27.2921
    28.6179

          k = 0.5000 0.5000 0.5000 (  8024 PWs)   bands (ev):

   -78.1141 -78.1141 -78.1141 -32.4070 -32.3727 -32.3727 -32.3727 -32.2202
   -32.2202 -32.2202 -32.1829 -32.1829   2.8483   2.8483   2.8483   2.9755
     2.9755  10.2331  14.5991  14.5991  14.5991  16.6377  16.6377  16.6377
    17.1577  17.1577  17.1577  17.9111  17.9111  17.9111  18.3361  18.3361
    19.6350  19.7793  19.7793  19.7793  19.8897  23.3736  23.3736  23.3736
    32.5155

     Writing output data file PbPt3.save
 
     init_run     :      0.12s CPU      0.14s WALL (       1 calls)
     electrons    :      1.68s CPU      1.75s WALL (       1 calls)

     Called by init_run:
     wfcinit      :      0.00s CPU      0.01s WALL (       1 calls)
     potinit      :      0.02s CPU      0.01s WALL (       1 calls)

     Called by electrons:
     c_bands      :      1.68s CPU      1.75s WALL (       1 calls)
     v_of_rho     :      0.00s CPU      0.01s WALL (       1 calls)

     Called by c_bands:
     init_us_2    :      0.00s CPU      0.00s WALL (       8 calls)
     cegterg      :      1.54s CPU      1.58s WALL (       9 calls)

     Called by sum_band:

     Called by *egterg:
     h_psi        :      0.90s CPU      0.99s WALL (     137 calls)
     g_psi        :      0.01s CPU      0.01s WALL (     120 calls)
     cdiaghg      :      0.51s CPU      0.48s WALL (     128 calls)

     Called by h_psi:
     h_psi:pot    :      0.88s CPU      0.98s WALL (     137 calls)
     h_psi:calbec :      0.03s CPU      0.05s WALL (     137 calls)
     vloc_psi     :      0.82s CPU      0.89s WALL (     137 calls)
     add_vuspsi   :      0.03s CPU      0.04s WALL (     137 calls)

     General routines
     calbec       :      0.03s CPU      0.05s WALL (     137 calls)
     fft          :      0.07s CPU      0.07s WALL (      11 calls)
     fftw         :      0.77s CPU      0.83s WALL (    6350 calls)
     davcio       :      0.00s CPU      0.00s WALL (      16 calls)
 
     Parallel routines
     fft_scatt_xy :      0.05s CPU      0.06s WALL (    6361 calls)
     fft_scatt_yz :      0.44s CPU      0.39s WALL (    6361 calls)
 
     PWSCF        :     2.42s CPU         2.65s WALL

 
   This run was terminated on:  13:41:22  16Apr2020            

=------------------------------------------------------------------------------=
   JOB DONE.
=------------------------------------------------------------------------------=
