mpijob CMD    : mpirun -f /tmp/mpiexec.params.k050801.20079
mpijob PARAMS : -d
        /home/k0508/k050801/research/dft/qeirreps/v2/qeirreps/reference/PbPt3_nonsoc
        r1i0n18 24 omplace -nt 1
        "/home/k0508/k050801/research/dft/qe-6.2/bin/pw.x"

SGI MPT Placement option
--------------------------
omplace -nt 1

Node   MPI
------------
r1i0n18 24


     Program PWSCF v.6.2 (svn rev. 13949:13950) starts on 16Apr2020 at 13:40:57 

     This program is part of the open-source Quantum ESPRESSO suite
     for quantum simulation of materials; please cite
         "P. Giannozzi et al., J. Phys.:Condens. Matter 21 395502 (2009);
         "P. Giannozzi et al., J. Phys.:Condens. Matter 29 465901 (2017);
          URL http://www.quantum-espresso.org", 
     in publications or presentations arising from this work. More details at
     http://www.quantum-espresso.org/quote

     Parallel version (MPI), running on    24 processors

     MPI processes distributed on     1 nodes
     R & G space division:  proc/nbgrp/npool/nimage =      24
     Waiting for input...
     Reading input from standard input

     Current dimensions of program PWSCF are:
     Max number of different atomic species (ntypx) = 10
     Max number of k-points (npk) =  40000
     Max angular momentum in pseudopotentials (lmaxx) =  3

     Subspace diagonalization in iterative solution of the eigenvalue problem:
     a serial algorithm will be used

 
     Parallelization info
     --------------------
     sticks:   dense  smooth     PW     G-vecs:    dense   smooth      PW
     Min          80      80     23                 2674     2674     407
     Max          81      81     24                 2679     2679     410
     Sum        1941    1941    553                64229    64229    9795
 


     bravais-lattice index     =            0
     lattice parameter (alat)  =       7.8085  a.u.
     unit-cell volume          =     476.1138 (a.u.)^3
     number of atoms/cell      =            4
     number of atomic types    =            2
     number of electrons       =        68.00
     number of Kohn-Sham states=           41
     kinetic-energy cutoff     =     100.0000  Ry
     charge density cutoff     =     400.0000  Ry
     convergence threshold     =      1.0E-08
     mixing beta               =       0.3000
     number of iterations used =            8  plain     mixing
     Exchange-correlation      = PBE ( 1  4  3  4 0 0)

     celldm(1)=   7.808548  celldm(2)=   0.000000  celldm(3)=   0.000000
     celldm(4)=   0.000000  celldm(5)=   0.000000  celldm(6)=   0.000000

     crystal axes: (cart. coord. in units of alat)
               a(1) = (   1.000000   0.000000   0.000000 )  
               a(2) = (   0.000000   1.000000   0.000000 )  
               a(3) = (   0.000000   0.000000   1.000000 )  

     reciprocal axes: (cart. coord. in units 2 pi/alat)
               b(1) = (  1.000000  0.000000  0.000000 )  
               b(2) = (  0.000000  1.000000  0.000000 )  
               b(3) = (  0.000000  0.000000  1.000000 )  


     PseudoPot. # 1 for Pt read from file:
     ../../pseudo/nonsoc/Pt.upf
     MD5 check sum: 3caa314b32314335c676ebce8d0bd64e
     Pseudo is Norm-conserving + core correction, Zval = 18.0
     Generated using ONCVPSP code by D. R. Hamann
     Using radial grid of 1374 points,  8 beta functions with: 
                l(1) =   0
                l(2) =   0
                l(3) =   1
                l(4) =   1
                l(5) =   2
                l(6) =   2
                l(7) =   3
                l(8) =   3

     PseudoPot. # 2 for Pb read from file:
     ../../pseudo/nonsoc/Pb.upf
     MD5 check sum: 465799cf2c9ea2062203eb79f5a7a375
     Pseudo is Norm-conserving + core correction, Zval = 14.0
     Generated using ONCVPSP code by D. R. Hamann
     Using radial grid of 1678 points,  6 beta functions with: 
                l(1) =   0
                l(2) =   0
                l(3) =   1
                l(4) =   1
                l(5) =   2
                l(6) =   2

     atomic species   valence    mass     pseudopotential
        Pt            18.00   195.08400     Pt( 1.00)
        Pb            14.00   207.20000     Pb( 1.00)

     48 Sym. Ops., with inversion, found



   Cartesian axes

     site n.     atom                  positions (alat units)
         1           Pt  tau(   1) = (   0.0000000   0.5000000   0.5000000  )
         2           Pt  tau(   2) = (   0.5000000   0.0000000   0.5000000  )
         3           Pt  tau(   3) = (   0.5000000   0.5000000   0.0000000  )
         4           Pb  tau(   4) = (   0.0000000   0.0000000   0.0000000  )

     number of k points=    35  Methfessel-Paxton smearing, width (Ry)=  0.0100
                       cart. coord. in units 2pi/alat
        k(    1) = (   0.0000000   0.0000000   0.0000000), wk =   0.0039062
        k(    2) = (   0.0000000   0.0000000   0.1250000), wk =   0.0234375
        k(    3) = (   0.0000000   0.0000000   0.2500000), wk =   0.0234375
        k(    4) = (   0.0000000   0.0000000   0.3750000), wk =   0.0234375
        k(    5) = (   0.0000000   0.0000000  -0.5000000), wk =   0.0117188
        k(    6) = (   0.0000000   0.1250000   0.1250000), wk =   0.0468750
        k(    7) = (   0.0000000   0.1250000   0.2500000), wk =   0.0937500
        k(    8) = (   0.0000000   0.1250000   0.3750000), wk =   0.0937500
        k(    9) = (   0.0000000   0.1250000  -0.5000000), wk =   0.0468750
        k(   10) = (   0.0000000   0.2500000   0.2500000), wk =   0.0468750
        k(   11) = (   0.0000000   0.2500000   0.3750000), wk =   0.0937500
        k(   12) = (   0.0000000   0.2500000  -0.5000000), wk =   0.0468750
        k(   13) = (   0.0000000   0.3750000   0.3750000), wk =   0.0468750
        k(   14) = (   0.0000000   0.3750000  -0.5000000), wk =   0.0468750
        k(   15) = (   0.0000000  -0.5000000  -0.5000000), wk =   0.0117188
        k(   16) = (   0.1250000   0.1250000   0.1250000), wk =   0.0312500
        k(   17) = (   0.1250000   0.1250000   0.2500000), wk =   0.0937500
        k(   18) = (   0.1250000   0.1250000   0.3750000), wk =   0.0937500
        k(   19) = (   0.1250000   0.1250000  -0.5000000), wk =   0.0468750
        k(   20) = (   0.1250000   0.2500000   0.2500000), wk =   0.0937500
        k(   21) = (   0.1250000   0.2500000   0.3750000), wk =   0.1875000
        k(   22) = (   0.1250000   0.2500000  -0.5000000), wk =   0.0937500
        k(   23) = (   0.1250000   0.3750000   0.3750000), wk =   0.0937500
        k(   24) = (   0.1250000   0.3750000  -0.5000000), wk =   0.0937500
        k(   25) = (   0.1250000  -0.5000000  -0.5000000), wk =   0.0234375
        k(   26) = (   0.2500000   0.2500000   0.2500000), wk =   0.0312500
        k(   27) = (   0.2500000   0.2500000   0.3750000), wk =   0.0937500
        k(   28) = (   0.2500000   0.2500000  -0.5000000), wk =   0.0468750
        k(   29) = (   0.2500000   0.3750000   0.3750000), wk =   0.0937500
        k(   30) = (   0.2500000   0.3750000  -0.5000000), wk =   0.0937500
        k(   31) = (   0.2500000  -0.5000000  -0.5000000), wk =   0.0234375
        k(   32) = (   0.3750000   0.3750000   0.3750000), wk =   0.0312500
        k(   33) = (   0.3750000   0.3750000  -0.5000000), wk =   0.0468750
        k(   34) = (   0.3750000  -0.5000000  -0.5000000), wk =   0.0234375
        k(   35) = (  -0.5000000  -0.5000000  -0.5000000), wk =   0.0039062

     Dense  grid:    64229 G-vectors     FFT dimensions: (  50,  50,  50)

     Estimated max dynamical RAM per process >      22.39 MB

     Estimated total dynamical RAM >     537.32 MB

     Initial potential from superposition of free atoms

     starting charge   67.99740, renormalised to   68.00000
     Starting wfc are   39 randomized atomic wfcs +    2 random wfc

     total cpu time spent up to now is        1.1 secs

     Self-consistent Calculation

     iteration #  1     ecut=   100.00 Ry     beta= 0.30
     Davidson diagonalization with overlap
     ethr =  1.00E-02,  avg # of iterations =  3.3

     Threshold (ethr) on eigenvalues was too large:
     Diagonalizing with lowered threshold

     Davidson diagonalization with overlap
     ethr =  2.46E-04,  avg # of iterations =  2.0

     total cpu time spent up to now is        4.9 secs

     total energy              =    -924.32416370 Ry
     Harris-Foulkes estimate   =    -924.38516168 Ry
     estimated scf accuracy    <       0.17036258 Ry

     iteration #  2     ecut=   100.00 Ry     beta= 0.30
     Davidson diagonalization with overlap
     ethr =  2.51E-04,  avg # of iterations =  2.0

     total cpu time spent up to now is        6.8 secs

     total energy              =    -924.33543685 Ry
     Harris-Foulkes estimate   =    -924.34203562 Ry
     estimated scf accuracy    <       0.02166439 Ry

     iteration #  3     ecut=   100.00 Ry     beta= 0.30
     Davidson diagonalization with overlap
     ethr =  3.19E-05,  avg # of iterations =  2.0

     total cpu time spent up to now is        8.5 secs

     total energy              =    -924.33581475 Ry
     Harris-Foulkes estimate   =    -924.33686642 Ry
     estimated scf accuracy    <       0.00462216 Ry

     iteration #  4     ecut=   100.00 Ry     beta= 0.30
     Davidson diagonalization with overlap
     ethr =  6.80E-06,  avg # of iterations =  2.1

     total cpu time spent up to now is       10.2 secs

     total energy              =    -924.33609440 Ry
     Harris-Foulkes estimate   =    -924.33619899 Ry
     estimated scf accuracy    <       0.00061403 Ry

     iteration #  5     ecut=   100.00 Ry     beta= 0.30
     Davidson diagonalization with overlap
     ethr =  9.03E-07,  avg # of iterations =  1.7

     total cpu time spent up to now is       11.9 secs

     total energy              =    -924.33613564 Ry
     Harris-Foulkes estimate   =    -924.33613499 Ry
     estimated scf accuracy    <       0.00001522 Ry

     iteration #  6     ecut=   100.00 Ry     beta= 0.30
     Davidson diagonalization with overlap
     ethr =  2.24E-08,  avg # of iterations =  2.6

     total cpu time spent up to now is       14.0 secs

     total energy              =    -924.33613756 Ry
     Harris-Foulkes estimate   =    -924.33613889 Ry
     estimated scf accuracy    <       0.00000263 Ry

     iteration #  7     ecut=   100.00 Ry     beta= 0.30
     Davidson diagonalization with overlap
     ethr =  3.87E-09,  avg # of iterations =  2.0

     total cpu time spent up to now is       15.7 secs

     total energy              =    -924.33613797 Ry
     Harris-Foulkes estimate   =    -924.33613790 Ry
     estimated scf accuracy    <       0.00000023 Ry

     iteration #  8     ecut=   100.00 Ry     beta= 0.30
     Davidson diagonalization with overlap
     ethr =  3.37E-10,  avg # of iterations =  2.0

     total cpu time spent up to now is       17.7 secs

     total energy              =    -924.33613798 Ry
     Harris-Foulkes estimate   =    -924.33613801 Ry
     estimated scf accuracy    <       0.00000006 Ry

     iteration #  9     ecut=   100.00 Ry     beta= 0.30
     Davidson diagonalization with overlap
     ethr =  9.20E-11,  avg # of iterations =  2.0

     total cpu time spent up to now is       19.6 secs

     End of self-consistent calculation

          k = 0.0000 0.0000 0.0000 (  8121 PWs)   bands (ev):

   -78.1242 -78.1091 -78.1091 -32.3753 -32.3753 -32.3753 -32.2827 -32.2827
   -32.2827 -32.1893 -32.1893 -32.1893   2.8431   2.8431   2.8887   2.8887
     2.8887   8.2333  13.7328  15.2604  15.2604  15.2604  15.2712  15.2712
    17.9116  17.9116  17.9116  19.0031  19.0031  19.2908  19.2908  19.2908
    19.6955  20.1680  20.1680  20.1680  21.2965  25.8328  25.8328  27.8443
    27.8443

          k = 0.0000 0.0000 0.1250 (  8085 PWs)   bands (ev):

   -78.1237 -78.1096 -78.1091 -32.3714 -32.3714 -32.3690 -32.2837 -32.2837
   -32.2829 -32.1961 -32.1921 -32.1921   2.8482   2.8566   2.8898   2.8931
     2.8931   8.3861  13.8189  15.1091  15.2888  15.3001  15.3001  15.3990
    17.5687  17.5687  17.8514  18.2672  18.9897  18.9928  19.1961  19.1961
    19.5549  20.1684  20.6438  20.6438  21.9027  25.7726  25.9016  27.8993
    27.8993

          k = 0.0000 0.0000 0.2500 (  8049 PWs)   bands (ev):

   -78.1223 -78.1110 -78.1091 -32.3613 -32.3613 -32.3515 -32.2869 -32.2869
   -32.2835 -32.2151 -32.1993 -32.1993   2.8607   2.8892   2.8924   2.9036
     2.9036   8.8239  13.8199  14.7094  15.3626  15.3846  15.3846  15.7645
    17.1147  17.1147  17.3714  17.7021  18.6191  18.7483  18.7483  18.8787
    19.2254  20.1694  21.7864  21.7864  21.7945  25.6190  26.9695  27.4632
    27.4632

          k = 0.0000 0.0000 0.3750 (  8041 PWs)   bands (ev):

   -78.1204 -78.1129 -78.1091 -32.3487 -32.3487 -32.3269 -32.2922 -32.2922
   -32.2840 -32.2412 -32.2068 -32.2068   2.8732   2.8949   2.9142   2.9142
     2.9218   9.4430  13.0088  14.8756  15.4307  15.4307  15.4455  16.2872
    16.9542  16.9542  17.0803  17.5454  18.1286  18.2118  18.2118  18.3957
    19.0942  20.1704  21.2514  23.1306  23.1306  25.4569  26.4108  26.4108
    27.7878

          k = 0.0000 0.0000-0.5000 (  8008 PWs)   bands (ev):

   -78.1192 -78.1141 -78.1091 -32.3423 -32.3423 -32.3102 -32.2955 -32.2955
   -32.2843 -32.2585 -32.2100 -32.2100   2.8784   2.8960   2.9186   2.9186
     2.9353   9.8289  12.4516  15.0758  15.4304  15.4304  15.4833  16.6333
    16.9922  16.9922  17.0400  17.4776  17.8607  17.9355  17.9355  18.0230
    19.0782  20.1708  21.0172  24.0616  24.0616  25.3885  25.5541  25.5541
    27.6109

          k = 0.0000 0.1250 0.1250 (  8069 PWs)   bands (ev):

   -78.1232 -78.1098 -78.1094 -32.3730 -32.3676 -32.3585 -32.2899 -32.2846
   -32.2778 -32.2075 -32.1952 -32.1895   2.8559   2.8658   2.8933   2.8947
     2.8965   8.5354  13.8977  15.1179  15.2291  15.2963  15.3726  15.4410
    17.2072  17.2366  17.9570  18.1857  18.7877  18.8340  19.0564  19.0923
    19.4145  19.9927  20.5896  21.1453  22.5784  25.7899  25.8416  27.5497
    28.0821

          k = 0.0000 0.1250 0.2500 (  8046 PWs)   bands (ev):

   -78.1218 -78.1111 -78.1095 -32.3663 -32.3573 -32.3407 -32.2977 -32.2874
   -32.2729 -32.2274 -32.2029 -32.1932   2.8674   2.8952   2.8961   2.9043
     2.9044   8.9608  13.8908  14.7750  15.2423  15.3232  15.6126  15.6568
    16.7903  17.0403  17.3612  17.9041  18.3665  18.6728  18.7346  18.9116
    19.1422  19.9054  20.9729  22.1869  22.6629  25.4273  26.5607  27.6435
    27.8127

          k = 0.0000 0.1250 0.3750 (  8053 PWs)   bands (ev):

   -78.1200 -78.1130 -78.1095 -32.3528 -32.3444 -32.3255 -32.3029 -32.2922
   -32.2687 -32.2499 -32.2110 -32.2004   2.8798   2.8984   2.9078   2.9144
     2.9284   9.5546  13.1300  14.9170  15.3133  15.3268  15.6321  16.1498
    16.7573  16.8233  17.2278  17.6732  17.8271  18.2007  18.3267  18.6306
    19.0167  19.8956  21.0019  22.9617  23.4491  24.7361  26.5872  26.7681
    28.3111

          k = 0.0000 0.1250-0.5000 (  8032 PWs)   bands (ev):

   -78.1188 -78.1141 -78.1095 -32.3414 -32.3377 -32.3282 -32.2970 -32.2955
   -32.2653 -32.2649 -32.2146 -32.2043   2.8857   2.8993   2.9092   2.9187
     2.9413   9.9160  12.6108  15.1822  15.2268  15.3843  15.5482  16.5620
    16.6122  16.9982  17.3294  17.3544  17.5635  18.0447  18.1065  18.3635
    19.0043  19.8957  20.8562  23.5760  24.1205  24.3160  25.9468  26.5485
    28.1912

          k = 0.0000 0.2500 0.2500 (  8040 PWs)   bands (ev):

   -78.1206 -78.1116 -78.1102 -32.3671 -32.3464 -32.3244 -32.3110 -32.2891
   -32.2601 -32.2477 -32.2122 -32.1896   2.8763   2.9039   2.9040   2.9070
     2.9195   9.3452  13.9504  14.7038  15.2033  15.2261  15.6374  15.9438
    16.3349  16.8887  17.2098  18.0747  18.2160  18.3796  18.6015  18.7515
    18.9089  19.5135  20.8479  22.3841  23.1096  25.2431  26.4926  27.9069
    28.5303

          k = 0.0000 0.2500 0.3750 (  8038 PWs)   bands (ev):

   -78.1189 -78.1130 -78.1105 -32.3602 -32.3326 -32.3275 -32.3071 -32.2926
   -32.2675 -32.2477 -32.2227 -32.1916   2.8829   2.9021   2.9068   2.9151
     2.9475   9.8612  13.4468  14.6456  15.2321  15.4041  15.8709  15.9424
    16.4833  16.5133  17.4872  17.7619  17.7948  18.1772  18.2675  18.6988
    18.8067  19.3293  20.8299  21.9468  24.2563  24.5980  26.8002  27.6739
    28.4078

          k = 0.0000 0.2500-0.5000 (  8060 PWs)   bands (ev):

   -78.1177 -78.1141 -78.1106 -32.3515 -32.3389 -32.3249 -32.2971 -32.2956
   -32.2789 -32.2418 -32.2275 -32.1940   2.8869   2.8997   2.9075   2.9188
     2.9596  10.1551  13.0466  14.7106  15.2680  15.4732  15.7242  16.2578
    16.3526  17.0186  17.1948  17.5140  17.5208  18.1473  18.1776  18.6719
    18.7745  19.2875  20.7076  21.9332  24.2776  25.0250  26.8444  26.8954
    28.8213

          k = 0.0000 0.3750 0.3750 (  8022 PWs)   bands (ev):

   -78.1173 -78.1134 -78.1118 -32.3657 -32.3328 -32.3169 -32.3028 -32.2937
   -32.2822 -32.2374 -32.2323 -32.1870   2.8708   2.9070   2.9147   2.9162
     2.9715  10.2504  13.7194  14.1490  15.1729  15.7190  15.9411  15.9595
    16.1991  16.6345  17.5500  17.6902  17.7543  18.0623  18.2047  18.3486
    18.7485  18.8620  20.8948  21.1539  24.5889  25.3098  27.1171  27.7289
    28.7516

          k = 0.0000 0.3750-0.5000 (  8034 PWs)   bands (ev):

   -78.1161 -78.1141 -78.1122 -32.3676 -32.3352 -32.3072 -32.2970 -32.2956
   -32.2915 -32.2453 -32.2260 -32.1860   2.8649   2.9091   2.9156   2.9190
     2.9823  10.4542  13.5938  14.1387  15.1475  15.8420  15.9386  16.0628
    16.1401  17.0585  17.1121  17.6238  17.6297  17.9370  18.2413  18.3048
    18.6952  18.6981  20.8067  21.0786  24.5343  26.0191  27.1015  27.8285
    27.9955

          k = 0.0000-0.5000-0.5000 (  8020 PWs)   bands (ev):

   -78.1141 -78.1141 -78.1141 -32.3733 -32.3331 -32.2969 -32.2969 -32.2956
   -32.2956 -32.2570 -32.2204 -32.1831   2.8559   2.9122   2.9190   2.9190
     2.9926  10.6064  13.8747  13.8747  15.0971  16.0163  16.0439  16.0563
    16.0563  17.0904  17.0904  17.6392  17.7076  17.7076  18.0310  18.2568
    18.4329  18.6532  20.8938  20.8938  24.7137  26.7174  27.2921  27.2921
    28.6179

          k = 0.1250 0.1250 0.1250 (  8079 PWs)   bands (ev):

   -78.1227 -78.1098 -78.1098 -32.3769 -32.3555 -32.3555 -32.2898 -32.2898
   -32.2736 -32.2197 -32.1919 -32.1919   2.8676   2.8676   2.8975   2.8978
     2.8978   8.6806  13.9545  15.1313  15.2330  15.2330  15.4753  15.4753
    16.6833  17.5671  17.5671  18.4474  18.4474  18.8079  18.8079  19.0548
    19.1756  19.9992  20.8957  20.8957  23.4222  25.6937  25.6937  27.1321
    28.4726

          k = 0.1250 0.1250 0.2500 (  8046 PWs)   bands (ev):

   -78.1214 -78.1112 -78.1098 -32.3731 -32.3469 -32.3380 -32.2985 -32.2889
   -32.2679 -32.2410 -32.1980 -32.1940   2.8749   2.8903   2.9014   2.9059
     2.9095   9.0921  13.9039  14.8473  15.1293  15.5181  15.5904  15.6382
    16.4942  17.1801  17.2528  17.9894  18.3476  18.3683  18.7549  18.9128
    18.9477  19.8895  21.0046  21.6346  23.5607  25.1350  26.5932  26.9753
    27.9211

          k = 0.1250 0.1250 0.3750 (  8043 PWs)   bands (ev):

   -78.1196 -78.1130 -78.1098 -32.3613 -32.3348 -32.3288 -32.3092 -32.2839
   -32.2632 -32.2607 -32.2048 -32.2018   2.8865   2.8981   2.9070   2.9097
     2.9347   9.6573  13.2287  14.8214  15.2289  15.5837  15.6447  16.0484
    16.6293  16.9280  16.9582  17.7998  17.9114  18.0326  18.4891  18.6644
    18.8828  19.7709  20.9765  22.5017  23.6901  24.3463  26.1120  28.0052
    28.5768

          k = 0.1250 0.1250-0.5000 (  8024 PWs)   bands (ev):

   -78.1184 -78.1141 -78.1098 -32.3512 -32.3319 -32.3227 -32.3205 -32.2751
   -32.2721 -32.2613 -32.2079 -32.2068   2.8938   2.8996   2.9087   2.9096
     2.9467   9.9918  12.7630  14.8937  15.2642  15.5911  15.6523  16.5410
    16.5760  16.6670  16.9888  17.6814  17.7781  18.0881  18.1389  18.4530
    18.8884  19.7307  20.8477  23.1051  23.7822  24.0876  25.6195  28.4538
    28.6061

          k = 0.1250 0.2500 0.2500 (  8057 PWs)   bands (ev):

   -78.1202 -78.1116 -78.1106 -32.3749 -32.3404 -32.3292 -32.3023 -32.2854
   -32.2640 -32.2580 -32.2032 -32.1909   2.8815   2.8958   2.9025   2.9116
     2.9263   9.4569  13.8323  14.8168  15.2156  15.4069  15.6291  15.9499
    16.2832  16.8622  17.1376  18.0853  18.2063  18.2700  18.4370  18.5829
    18.9467  19.7438  20.8952  21.8858  23.2243  25.6949  25.8172  26.8927
    29.0790

          k = 0.1250 0.2500 0.3750 (  8033 PWs)   bands (ev):

   -78.1186 -78.1130 -78.1108 -32.3676 -32.3417 -32.3256 -32.3047 -32.2857
   -32.2728 -32.2473 -32.2117 -32.1927   2.8846   2.9010   2.9040   2.9133
     2.9507   9.9333  13.4682  14.5567  15.4284  15.5433  15.8066  16.0136
    16.4661  16.5329  17.0424  17.8880  18.0402  18.0734  18.2814  18.5721
    18.7940  19.5307  20.8616  22.1288  22.7317  24.8955  26.8229  27.1069
    29.2942

          k = 0.1250 0.2500-0.5000 (  8036 PWs)   bands (ev):

   -78.1174 -78.1141 -78.1108 -32.3558 -32.3516 -32.3251 -32.3050 -32.2921
   -32.2676 -32.2417 -32.2164 -32.1951   2.8863   2.9015   2.9089   2.9099
     2.9617  10.1935  13.1790  14.4805  15.4802  15.6008  15.9134  16.1852
    16.3759  16.7230  16.8119  17.8284  17.8482  18.0881  18.2555  18.5742
    18.6501  19.4496  20.7832  22.1075  22.7722  24.6148  26.7680  27.9855
    29.2625

          k = 0.1250 0.3750 0.3750 (  8035 PWs)   bands (ev):

   -78.1170 -78.1134 -78.1120 -32.3685 -32.3507 -32.3246 -32.3102 -32.2829
   -32.2717 -32.2322 -32.2228 -32.1874   2.8702   2.9053   2.9057   2.9187
     2.9713  10.2666  13.6718  14.2706  15.4071  15.6193  15.8137  16.1868
    16.3512  16.6002  17.0299  17.7168  17.9379  18.0593  18.2253  18.4929
    18.7548  19.1685  20.8220  21.2778  22.8911  25.8499  25.9274  27.3698
    28.9252

          k = 0.1250 0.3750-0.5000 (  8050 PWs)   bands (ev):

   -78.1159 -78.1141 -78.1123 -32.3675 -32.3540 -32.3254 -32.3161 -32.2794
   -32.2672 -32.2297 -32.2260 -32.1862   2.8640   2.9059   2.9086   2.9194
     2.9810  10.4308  13.7087  14.1396  15.4129  15.5739  15.9264  16.1594
    16.4488  16.8416  16.8853  17.5641  17.8957  18.0363  18.2742  18.3383
    18.6880  19.0396  20.7694  21.0394  23.1073  25.3844  26.5150  27.6704
    28.1883

          k = 0.1250-0.5000-0.5000 (  8032 PWs)   bands (ev):

   -78.1141 -78.1141 -78.1141 -32.3732 -32.3505 -32.3255 -32.3255 -32.2671
   -32.2671 -32.2396 -32.2204 -32.1830   2.8548   2.9085   2.9085   2.9214
     2.9900  10.5437  13.9967  13.9967  15.3080  15.4328  16.0757  16.0757
    16.7103  16.9362  16.9362  17.3652  17.9447  17.9447  18.1678  18.2684
    18.6513  18.7555  20.7941  20.7941  23.4400  25.8371  25.8371  27.5627
    28.1519

          k = 0.2500 0.2500 0.2500 (  8024 PWs)   bands (ev):

   -78.1192 -78.1116 -78.1116 -32.3812 -32.3379 -32.3379 -32.2920 -32.2798
   -32.2798 -32.2516 -32.1946 -32.1946   2.8870   2.8870   2.8972   2.9317
     2.9317   9.7556  13.6312  15.1247  15.1247  15.4140  15.9750  15.9750
    16.3008  16.7758  16.7758  17.9690  18.1458  18.1458  18.3848  18.3848
    19.0104  19.8846  21.0872  21.0872  23.6750  24.5988  24.5988  28.4023
    29.4142

          k = 0.2500 0.2500 0.3750 (  8039 PWs)   bands (ev):

   -78.1177 -78.1131 -78.1116 -32.3782 -32.3447 -32.3439 -32.3134 -32.2769
   -32.2566 -32.2433 -32.1994 -32.1942   2.8841   2.8871   2.8933   2.9310
     2.9562  10.1116  13.5251  14.5915  15.5201  15.6076  16.0132  16.1378
    16.5158  16.6000  16.6194  17.6603  18.0551  18.2500  18.2842  18.4720
    18.9047  19.7287  20.8685  21.3603  22.5459  23.6748  25.5293  28.4337
    29.0628

          k = 0.2500 0.2500-0.5000 (  8036 PWs)   bands (ev):

   -78.1167 -78.1141 -78.1116 -32.3711 -32.3539 -32.3472 -32.3195 -32.2760
   -32.2457 -32.2392 -32.2020 -32.1965   2.8842   2.8860   2.8926   2.9294
     2.9667  10.2842  13.5343  14.2737  15.6373  15.7554  16.0160  16.3562
    16.3803  16.5045  16.6809  17.5605  17.9925  18.3375  18.4844  18.5026
    18.6068  19.5871  20.9572  21.4913  21.9588  23.3417  26.2916  27.8078
    28.8821

          k = 0.2500 0.3750 0.3750 (  8029 PWs)   bands (ev):

   -78.1165 -78.1134 -78.1125 -32.3810 -32.3590 -32.3463 -32.3353 -32.2571
   -32.2493 -32.2319 -32.2029 -32.1886   2.8686   2.8849   2.8869   2.9412
     2.9687  10.2945  13.7049  14.5698  15.2624  15.8593  16.0336  16.1916
    16.6013  16.6539  16.9061  17.3081  18.0848  18.1330  18.3574  18.5939
    18.9714  19.6017  20.5669  21.1619  21.6557  24.2200  24.4089  27.2049
    29.7298

          k = 0.2500 0.3750-0.5000 (  8034 PWs)   bands (ev):

   -78.1155 -78.1141 -78.1128 -32.3778 -32.3674 -32.3502 -32.3410 -32.2533
   -32.2427 -32.2259 -32.2065 -32.1869   2.8617   2.8838   2.8856   2.9417
     2.9771  10.3708  13.9911  14.2489  15.2701  15.9701  15.9820  16.2308
    16.6655  16.6839  17.0900  17.1739  18.1069  18.1314  18.4416  18.6504
    18.7848  19.4853  20.6102  20.8090  21.5157  23.8466  24.9619  26.4074
    29.9376

          k = 0.2500-0.5000-0.5000 (  8024 PWs)   bands (ev):

   -78.1141 -78.1141 -78.1141 -32.3787 -32.3730 -32.3503 -32.3503 -32.2425
   -32.2425 -32.2203 -32.2114 -32.1830   2.8521   2.8833   2.8833   2.9437
     2.9840  10.4050  14.2839  14.2839  14.9779  15.8772  16.1892  16.1892
    16.7938  16.7938  16.9860  17.3466  18.2627  18.2627  18.2963  18.5910
    18.6309  19.2545  20.4499  20.4499  21.7581  24.3745  24.3745  25.6504
    30.2518

          k = 0.3750 0.3750 0.3750 (  8045 PWs)   bands (ev):

   -78.1156 -78.1134 -78.1134 -32.3913 -32.3609 -32.3609 -32.3575 -32.2354
   -32.2354 -32.2295 -32.1905 -32.1905   2.8663   2.8663   2.8683   2.9645
     2.9645  10.3068  13.9518  14.8469  14.8469  16.0505  16.3421  16.3421
    16.6818  16.6818  16.9942  17.5037  18.0778  18.0778  18.5447  18.5447
    19.1850  19.8080  20.2296  20.2296  21.3477  23.5776  23.5776  25.7513
    31.9480

          k = 0.3750 0.3750-0.5000 (  8012 PWs)   bands (ev):

   -78.1149 -78.1141 -78.1134 -32.3939 -32.3680 -32.3660 -32.3600 -32.2336
   -32.2270 -32.2251 -32.1917 -32.1867   2.8589   2.8598   2.8662   2.9624
     2.9742  10.3076  14.3015  14.4375  14.9400  16.2706  16.3506  16.4799
    16.7031  16.7732  16.8685  17.7461  18.0240  18.1295  18.5066  18.5886
    19.2035  19.7219  20.1904  20.2039  20.6516  23.3387  23.9311  24.9209
    31.9572

          k = 0.3750-0.5000-0.5000 (  8044 PWs)   bands (ev):

   -78.1141 -78.1141 -78.1141 -32.3995 -32.3728 -32.3669 -32.3669 -32.2261
   -32.2261 -32.2203 -32.1905 -32.1830   2.8494   2.8584   2.8584   2.9661
     2.9779  10.2810  14.5249  14.5249  14.6949  16.5066  16.5066  16.6448
    16.7276  16.8320  16.8320  17.7687  18.2525  18.2525  18.3244  18.5262
    19.2395  19.6367  19.9659  19.9659  20.4289  23.5884  23.5884  24.0733
    31.9739

          k =-0.5000-0.5000-0.5000 (  8024 PWs)   bands (ev):

   -78.1141 -78.1141 -78.1141 -32.4070 -32.3728 -32.3728 -32.3728 -32.2203
   -32.2203 -32.2203 -32.1830 -32.1830   2.8482   2.8482   2.8482   2.9754
     2.9754  10.2331  14.5990  14.5990  14.5990  16.6376  16.6376  16.6376
    17.1578  17.1578  17.1578  17.9111  17.9111  17.9111  18.3360  18.3360
    19.6349  19.7792  19.7792  19.7792  19.8896  23.3735  23.3735  23.3735
    32.5156

     the Fermi energy is    20.1046 ev

!    total energy              =    -924.33613800 Ry
     Harris-Foulkes estimate   =    -924.33613800 Ry
     estimated scf accuracy    <          2.7E-09 Ry

     The total energy is the sum of the following terms:

     one-electron contribution =    -210.06761554 Ry
     hartree contribution      =     150.80364499 Ry
     xc contribution           =    -182.85101741 Ry
     ewald contribution        =    -682.22134663 Ry
     smearing contrib. (-TS)   =       0.00019658 Ry

     convergence has been achieved in   9 iterations

     Forces acting on atoms (cartesian axes, Ry/au):

     atom    1 type  1   force =     0.00000000    0.00000000    0.00000000
     atom    2 type  1   force =     0.00000000    0.00000000    0.00000000
     atom    3 type  1   force =     0.00000000    0.00000000    0.00000000
     atom    4 type  2   force =     0.00000000    0.00000000    0.00000000

     Total force =     0.000000     Total SCF correction =     0.000000


     Computing stress (Cartesian axis) and pressure

          total   stress  (Ry/bohr**3)                   (kbar)     P=   -1.24
  -0.00000843   0.00000000   0.00000000         -1.24      0.00      0.00
   0.00000000  -0.00000843   0.00000000          0.00     -1.24      0.00
   0.00000000   0.00000000  -0.00000843          0.00      0.00     -1.24


     Writing output data file PbPt3.save
 
     init_run     :      0.54s CPU      0.82s WALL (       1 calls)
     electrons    :     17.98s CPU     18.47s WALL (       1 calls)
     forces       :      0.19s CPU      0.19s WALL (       1 calls)
     stress       :      0.43s CPU      0.43s WALL (       1 calls)

     Called by init_run:
     wfcinit      :      0.47s CPU      0.51s WALL (       1 calls)
     potinit      :      0.02s CPU      0.02s WALL (       1 calls)

     Called by electrons:
     c_bands      :     15.80s CPU     16.21s WALL (      10 calls)
     sum_band     :      2.11s CPU      2.17s WALL (      10 calls)
     v_of_rho     :      0.04s CPU      0.04s WALL (      10 calls)
     mix_rho      :      0.02s CPU      0.02s WALL (      10 calls)

     Called by c_bands:
     init_us_2    :      0.21s CPU      0.24s WALL (     805 calls)
     cegterg      :     13.91s CPU     14.23s WALL (     350 calls)

     Called by sum_band:

     Called by *egterg:
     h_psi        :      9.88s CPU     10.22s WALL (    1142 calls)
     g_psi        :      0.06s CPU      0.05s WALL (     757 calls)
     cdiaghg      :      2.70s CPU      2.78s WALL (    1072 calls)

     Called by h_psi:
     h_psi:pot    :      9.83s CPU     10.14s WALL (    1142 calls)
     h_psi:calbec :      0.58s CPU      0.55s WALL (    1142 calls)
     vloc_psi     :      8.90s CPU      9.19s WALL (    1142 calls)
     add_vuspsi   :      0.35s CPU      0.39s WALL (    1142 calls)

     General routines
     calbec       :      0.68s CPU      0.65s WALL (    1317 calls)
     fft          :      0.02s CPU      0.26s WALL (     136 calls)
     fftw         :     10.06s CPU     10.40s WALL (   81992 calls)
 
     Parallel routines
     fft_scatt_xy :      0.87s CPU      0.86s WALL (   82128 calls)
     fft_scatt_yz :      4.13s CPU      4.34s WALL (   82128 calls)
 
     PWSCF        :    20.39s CPU        21.71s WALL

 
   This run was terminated on:  13:41:19  16Apr2020            

=------------------------------------------------------------------------------=
   JOB DONE.
=------------------------------------------------------------------------------=
