mpijob CMD    : mpirun -f /tmp/mpiexec.params.k050801.196815
mpijob PARAMS : -d /home/k0508/k050801/qeirreps/ver_5/qeirreps/reference/PbPt3_nonsoc
        r1i5n19 10 omplace -nt 4 "/home/k0508/k050801/qe-6.6/bin/pw.x"

SGI MPT Placement option
--------------------------
omplace -nt 4

Node   MPI
------------
r1i5n19 10


     Program PWSCF v.6.6 starts on 29Nov2020 at 19:14:24 

     This program is part of the open-source Quantum ESPRESSO suite
     for quantum simulation of materials; please cite
         "P. Giannozzi et al., J. Phys.:Condens. Matter 21 395502 (2009);
         "P. Giannozzi et al., J. Phys.:Condens. Matter 29 465901 (2017);
          URL http://www.quantum-espresso.org", 
     in publications or presentations arising from this work. More details at
     http://www.quantum-espresso.org/quote

     Parallel version (MPI), running on    10 processors

     MPI processes distributed on     1 nodes
     R & G space division:  proc/nbgrp/npool/nimage =      10
     Fft bands division:     nmany     =       1
     Waiting for input...
     Reading input from standard input

     Current dimensions of program PWSCF are:
     Max number of different atomic species (ntypx) = 10
     Max number of k-points (npk) =  40000
     Max angular momentum in pseudopotentials (lmaxx) =  3

     Atomic positions and unit cell read from directory:
     /work/k0508/k050801/PbPt3_ns/rep/PbPt3.save/
     Atomic positions from file used, from input discarded
 

     Subspace diagonalization in iterative solution of the eigenvalue problem:
     a serial algorithm will be used

     Message from routine setup:
     using ibrav=0 with symmetry is DISCOURAGED, use correct ibrav instead
 
     Parallelization info
     --------------------
     sticks:   dense  smooth     PW     G-vecs:    dense   smooth      PW
     Min         194     194     55                 6422     6422     979
     Max         195     195     56                 6426     6426     982
     Sum        1941    1941    553                64229    64229    9795
 


     bravais-lattice index     =            0
     lattice parameter (alat)  =       7.8085  a.u.
     unit-cell volume          =     476.1138 (a.u.)^3
     number of atoms/cell      =            4
     number of atomic types    =            2
     number of electrons       =        68.00
     number of Kohn-Sham states=           41
     kinetic-energy cutoff     =     100.0000  Ry
     charge density cutoff     =     400.0000  Ry
     Exchange-correlation= PBE
                           (   1   4   3   4   0   0   0)

     celldm(1)=   7.808548  celldm(2)=   0.000000  celldm(3)=   0.000000
     celldm(4)=   0.000000  celldm(5)=   0.000000  celldm(6)=   0.000000

     crystal axes: (cart. coord. in units of alat)
               a(1) = (   1.000000   0.000000   0.000000 )  
               a(2) = (   0.000000   1.000000   0.000000 )  
               a(3) = (   0.000000   0.000000   1.000000 )  

     reciprocal axes: (cart. coord. in units 2 pi/alat)
               b(1) = (  1.000000  0.000000  0.000000 )  
               b(2) = (  0.000000  1.000000  0.000000 )  
               b(3) = (  0.000000  0.000000  1.000000 )  


     PseudoPot. # 1 for Pt read from file:
     ../../pseudo/nonsoc/Pt.upf
     MD5 check sum: 3caa314b32314335c676ebce8d0bd64e
     Pseudo is Norm-conserving + core correction, Zval = 18.0
     Generated using ONCVPSP code by D. R. Hamann
     Using radial grid of 1374 points,  8 beta functions with: 
                l(1) =   0
                l(2) =   0
                l(3) =   1
                l(4) =   1
                l(5) =   2
                l(6) =   2
                l(7) =   3
                l(8) =   3

     PseudoPot. # 2 for Pb read from file:
     ../../pseudo/nonsoc/Pb.upf
     MD5 check sum: 465799cf2c9ea2062203eb79f5a7a375
     Pseudo is Norm-conserving + core correction, Zval = 14.0
     Generated using ONCVPSP code by D. R. Hamann
     Using radial grid of 1678 points,  6 beta functions with: 
                l(1) =   0
                l(2) =   0
                l(3) =   1
                l(4) =   1
                l(5) =   2
                l(6) =   2

     atomic species   valence    mass     pseudopotential
        Pt            18.00   195.08400     Pt( 1.00)
        Pb            14.00   207.20000     Pb( 1.00)

     48 Sym. Ops., with inversion, found



   Cartesian axes

     site n.     atom                  positions (alat units)
         1           Pt  tau(   1) = (   0.0000000   0.5000000   0.5000000  )
         2           Pt  tau(   2) = (   0.5000000   0.0000000   0.5000000  )
         3           Pt  tau(   3) = (   0.5000000   0.5000000   0.0000000  )
         4           Pb  tau(   4) = (   0.0000000   0.0000000   0.0000000  )

     number of k points=     8  Methfessel-Paxton smearing, width (Ry)=  0.0100
                       cart. coord. in units 2pi/alat
        k(    1) = (   0.0000000   0.0000000   0.0000000), wk =   0.2500000
        k(    2) = (   0.5000000   0.0000000   0.0000000), wk =   0.2500000
        k(    3) = (   0.0000000   0.5000000   0.0000000), wk =   0.2500000
        k(    4) = (   0.0000000   0.0000000   0.5000000), wk =   0.2500000
        k(    5) = (   0.0000000   0.5000000   0.5000000), wk =   0.2500000
        k(    6) = (   0.5000000   0.0000000   0.5000000), wk =   0.2500000
        k(    7) = (   0.5000000   0.5000000   0.0000000), wk =   0.2500000
        k(    8) = (   0.5000000   0.5000000   0.5000000), wk =   0.2500000

     Dense  grid:    64229 G-vectors     FFT dimensions: (  50,  50,  50)

     Estimated max dynamical RAM per process >      13.96 MB

     Estimated total dynamical RAM >     139.63 MB

     The potential is recalculated from file :
     /work/k0508/k050801/PbPt3_ns/rep/PbPt3.save/charge-density

     Starting wfcs are   39 randomized atomic wfcs +    2 random wfcs

     Band Structure Calculation
     Davidson diagonalization with overlap

     ethr =  1.47E-11,  avg # of iterations = 29.6

     total cpu time spent up to now is        3.0 secs

     End of band structure calculation

          k = 0.0000 0.0000 0.0000 (  8121 PWs)   bands (ev):

   -78.1245 -78.1094 -78.1094 -32.3754 -32.3754 -32.3754 -32.2829 -32.2829
   -32.2829 -32.1895 -32.1895 -32.1895   2.8433   2.8433   2.8889   2.8889
     2.8889   8.2333  13.7328  15.2604  15.2604  15.2604  15.2711  15.2711
    17.9115  17.9115  17.9115  19.0030  19.0030  19.2908  19.2908  19.2908
    19.6954  20.1679  20.1679  20.1679  21.2965  25.8328  25.8328  27.8444
    27.8444

          k = 0.5000 0.0000 0.0000 (  8008 PWs)   bands (ev):

   -78.1194 -78.1144 -78.1093 -32.3424 -32.3424 -32.3104 -32.2957 -32.2957
   -32.2844 -32.2587 -32.2102 -32.2102   2.8786   2.8962   2.9188   2.9188
     2.9355   9.8289  12.4515  15.0758  15.4303  15.4303  15.4832  16.6332
    16.9922  16.9922  17.0399  17.4775  17.8607  17.9354  17.9354  18.0230
    19.0781  20.1708  21.0172  24.0616  24.0616  25.3885  25.5540  25.5540
    27.6109

          k = 0.0000 0.5000 0.0000 (  8008 PWs)   bands (ev):

   -78.1194 -78.1144 -78.1093 -32.3424 -32.3424 -32.3104 -32.2957 -32.2957
   -32.2844 -32.2587 -32.2102 -32.2102   2.8786   2.8962   2.9188   2.9188
     2.9355   9.8289  12.4515  15.0758  15.4303  15.4303  15.4832  16.6332
    16.9922  16.9922  17.0399  17.4775  17.8607  17.9354  17.9354  18.0230
    19.0781  20.1708  21.0172  24.0616  24.0616  25.3885  25.5540  25.5540
    27.6109

          k = 0.0000 0.0000 0.5000 (  8008 PWs)   bands (ev):

   -78.1194 -78.1144 -78.1093 -32.3424 -32.3424 -32.3104 -32.2957 -32.2957
   -32.2844 -32.2587 -32.2102 -32.2102   2.8786   2.8962   2.9188   2.9188
     2.9355   9.8289  12.4515  15.0758  15.4303  15.4303  15.4832  16.6332
    16.9922  16.9922  17.0399  17.4775  17.8607  17.9354  17.9354  18.0230
    19.0781  20.1708  21.0172  24.0616  24.0616  25.3885  25.5540  25.5540
    27.6109

          k = 0.0000 0.5000 0.5000 (  8020 PWs)   bands (ev):

   -78.1144 -78.1144 -78.1144 -32.3734 -32.3333 -32.2971 -32.2971 -32.2958
   -32.2958 -32.2572 -32.2206 -32.1833   2.8561   2.9124   2.9192   2.9192
     2.9928  10.6064  13.8746  13.8746  15.0971  16.0163  16.0438  16.0562
    16.0562  17.0904  17.0904  17.6391  17.7076  17.7076  18.0310  18.2567
    18.4329  18.6532  20.8938  20.8938  24.7137  26.7173  27.2921  27.2921
    28.6179

          k = 0.5000 0.0000 0.5000 (  8020 PWs)   bands (ev):

   -78.1144 -78.1144 -78.1144 -32.3734 -32.3333 -32.2971 -32.2971 -32.2958
   -32.2958 -32.2572 -32.2206 -32.1833   2.8561   2.9124   2.9192   2.9192
     2.9928  10.6064  13.8746  13.8746  15.0971  16.0163  16.0438  16.0562
    16.0562  17.0904  17.0904  17.6391  17.7076  17.7076  18.0310  18.2567
    18.4329  18.6532  20.8938  20.8938  24.7137  26.7173  27.2921  27.2921
    28.6179

          k = 0.5000 0.5000 0.0000 (  8020 PWs)   bands (ev):

   -78.1144 -78.1144 -78.1144 -32.3734 -32.3333 -32.2971 -32.2971 -32.2958
   -32.2958 -32.2572 -32.2206 -32.1833   2.8561   2.9124   2.9192   2.9192
     2.9928  10.6064  13.8746  13.8746  15.0971  16.0163  16.0438  16.0562
    16.0562  17.0904  17.0904  17.6391  17.7076  17.7076  18.0310  18.2567
    18.4329  18.6532  20.8938  20.8938  24.7137  26.7173  27.2921  27.2921
    28.6179

          k = 0.5000 0.5000 0.5000 (  8024 PWs)   bands (ev):

   -78.1144 -78.1144 -78.1144 -32.4072 -32.3729 -32.3729 -32.3729 -32.2205
   -32.2205 -32.2205 -32.1832 -32.1832   2.8484   2.8484   2.8484   2.9756
     2.9756  10.2331  14.5990  14.5990  14.5990  16.6376  16.6376  16.6376
    17.1577  17.1577  17.1577  17.9110  17.9110  17.9110  18.3359  18.3359
    19.6350  19.7791  19.7791  19.7791  19.8896  23.3735  23.3735  23.3735
    32.5156

     Writing output data file /work/k0508/k050801/PbPt3_ns/rep/PbPt3.save/
 
     init_run     :      0.07s CPU      0.08s WALL (       1 calls)
     electrons    :      2.49s CPU      2.56s WALL (       1 calls)

     Called by init_run:
     wfcinit      :      0.00s CPU      0.00s WALL (       1 calls)
     potinit      :      0.01s CPU      0.01s WALL (       1 calls)
     hinit0       :      0.02s CPU      0.03s WALL (       1 calls)

     Called by electrons:
     c_bands      :      2.49s CPU      2.56s WALL (       1 calls)
     v_of_rho     :      0.01s CPU      0.01s WALL (       1 calls)

     Called by c_bands:
     init_us_2    :      0.00s CPU      0.00s WALL (       8 calls)
     cegterg      :      2.29s CPU      2.34s WALL (      15 calls)

     Called by *egterg:
     cdiaghg      :      0.45s CPU      0.45s WALL (     245 calls)
     h_psi        :      1.64s CPU      1.70s WALL (     260 calls)
     g_psi        :      0.01s CPU      0.01s WALL (     237 calls)

     Called by h_psi:
     h_psi:calbec :      0.10s CPU      0.10s WALL (     260 calls)
     vloc_psi     :      1.45s CPU      1.50s WALL (     260 calls)
     add_vuspsi   :      0.09s CPU      0.09s WALL (     260 calls)

     General routines
     calbec       :      0.10s CPU      0.10s WALL (     260 calls)
     fft          :      0.01s CPU      0.01s WALL (      11 calls)
     fftw         :      1.34s CPU      1.38s WALL (    9258 calls)
     davcio       :      0.00s CPU      0.01s WALL (      16 calls)
 
     Parallel routines
     fft_scatt_xy :      0.14s CPU      0.14s WALL (    9269 calls)
     fft_scatt_yz :      0.43s CPU      0.45s WALL (    9269 calls)
 
     PWSCF        :      2.89s CPU      3.09s WALL

 
   This run was terminated on:  19:14:27  29Nov2020            

=------------------------------------------------------------------------------=
   JOB DONE.
=------------------------------------------------------------------------------=
