mpijob CMD    : mpirun -f /tmp/mpiexec.params.k050801.101088
mpijob PARAMS : -d /home/k0508/k050801/qeirreps/ver_5/qeirreps/reference/Si_nonsoc
        r1i6n18 24 omplace -nt 1 "/home/k0508/k050801/qe-6.6/bin/pw.x"

SGI MPT Placement option
--------------------------
omplace -nt 1

Node   MPI
------------
r1i6n18 24


     Program PWSCF v.6.6 starts on 29Nov2020 at 17:56:25 

     This program is part of the open-source Quantum ESPRESSO suite
     for quantum simulation of materials; please cite
         "P. Giannozzi et al., J. Phys.:Condens. Matter 21 395502 (2009);
         "P. Giannozzi et al., J. Phys.:Condens. Matter 29 465901 (2017);
          URL http://www.quantum-espresso.org", 
     in publications or presentations arising from this work. More details at
     http://www.quantum-espresso.org/quote

     Parallel version (MPI), running on    24 processors

     MPI processes distributed on     1 nodes
     R & G space division:  proc/nbgrp/npool/nimage =      24
     Fft bands division:     nmany     =       1
     Waiting for input...
     Reading input from standard input

     Current dimensions of program PWSCF are:
     Max number of different atomic species (ntypx) = 10
     Max number of k-points (npk) =  40000
     Max angular momentum in pseudopotentials (lmaxx) =  3

     Atomic positions and unit cell read from directory:
     /work/k0508/k050801/Si_ns/band/Si.save/
     Atomic positions from file used, from input discarded
 

     Subspace diagonalization in iterative solution of the eigenvalue problem:
     a serial algorithm will be used

     Message from routine setup:
     using ibrav=0 with symmetry is DISCOURAGED, use correct ibrav instead
 
     Parallelization info
     --------------------
     sticks:   dense  smooth     PW     G-vecs:    dense   smooth      PW
     Min          61      61     17                 1553     1553     238
     Max          62      62     18                 1556     1556     242
     Sum        1483    1483    421                37309    37309    5769
 


     bravais-lattice index     =            0
     lattice parameter (alat)  =       7.3086  a.u.
     unit-cell volume          =     276.0515 (a.u.)^3
     number of atoms/cell      =            2
     number of atomic types    =            1
     number of electrons       =         8.00
     number of Kohn-Sham states=            8
     kinetic-energy cutoff     =     100.0000  Ry
     charge density cutoff     =     400.0000  Ry
     Exchange-correlation= PBE
                           (   1   4   3   4   0   0   0)

     celldm(1)=   7.308615  celldm(2)=   0.000000  celldm(3)=   0.000000
     celldm(4)=   0.000000  celldm(5)=   0.000000  celldm(6)=   0.000000

     crystal axes: (cart. coord. in units of alat)
               a(1) = (   0.000000   0.707107   0.707107 )  
               a(2) = (   0.707107   0.000000   0.707107 )  
               a(3) = (   0.707107   0.707107   0.000000 )  

     reciprocal axes: (cart. coord. in units 2 pi/alat)
               b(1) = ( -0.707107  0.707107  0.707107 )  
               b(2) = (  0.707107 -0.707107  0.707107 )  
               b(3) = (  0.707107  0.707107 -0.707107 )  


     PseudoPot. # 1 for Si read from file:
     ../../pseudo/nonsoc/Si.upf
     MD5 check sum: 02fab3f35e82123ef5bf1cb05d5b1a5e
     Pseudo is Norm-conserving + core correction, Zval =  4.0
     Generated using ONCVPSP code by D. R. Hamann
     Using radial grid of 1510 points,  6 beta functions with: 
                l(1) =   0
                l(2) =   0
                l(3) =   1
                l(4) =   1
                l(5) =   2
                l(6) =   2

     atomic species   valence    mass     pseudopotential
        Si             4.00    28.08550     Si( 1.00)

     48 Sym. Ops., with inversion, found (36 have fractional translation)



   Cartesian axes

     site n.     atom                  positions (alat units)
         1           Si  tau(   1) = (   0.8838835   0.8838835   0.8838835  )
         2           Si  tau(   2) = (   0.5303301   0.5303301   0.5303301  )

     number of k points=   362  Methfessel-Paxton smearing, width (Ry)=  0.0100

     Number of k-points >= 100: set verbosity='high' to print them.

     Dense  grid:    37309 G-vectors     FFT dimensions: (  48,  48,  48)

     Estimated max dynamical RAM per process >       2.37 MB

     Estimated total dynamical RAM >      56.91 MB

     The potential is recalculated from file :
     /work/k0508/k050801/Si_ns/band/Si.save/charge-density

     Starting wfcs are    8 randomized atomic wfcs

     Band Structure Calculation
     Davidson diagonalization with overlap
     c_bands:  1 eigenvalues not converged

     ethr =  1.25E-10,  avg # of iterations = 35.5

     total cpu time spent up to now is       17.8 secs

     End of band structure calculation

     Number of k-points >= 100: set verbosity='high' to print the bands.

     Writing output data file /work/k0508/k050801/Si_ns/band/Si.save/
 
     init_run     :      0.04s CPU      0.08s WALL (       1 calls)
     electrons    :     16.35s CPU     17.51s WALL (       1 calls)

     Called by init_run:
     wfcinit      :      0.00s CPU      0.00s WALL (       1 calls)
     potinit      :      0.01s CPU      0.02s WALL (       1 calls)
     hinit0       :      0.02s CPU      0.04s WALL (       1 calls)

     Called by electrons:
     c_bands      :     16.35s CPU     17.50s WALL (       1 calls)
     v_of_rho     :      0.00s CPU      0.00s WALL (       1 calls)

     Called by c_bands:
     init_us_2    :      0.02s CPU      0.02s WALL (     362 calls)
     cegterg      :     15.50s CPU     16.43s WALL (     830 calls)

     Called by *egterg:
     cdiaghg      :      1.37s CPU      1.47s WALL (   13214 calls)
     h_psi        :     13.47s CPU     14.31s WALL (   14044 calls)
     g_psi        :      0.06s CPU      0.06s WALL (   12852 calls)

     Called by h_psi:
     h_psi:calbec :      0.58s CPU      0.62s WALL (   14044 calls)
     vloc_psi     :     12.56s CPU     13.34s WALL (   14044 calls)
     add_vuspsi   :      0.20s CPU      0.21s WALL (   14044 calls)

     General routines
     calbec       :      0.54s CPU      0.58s WALL (   14044 calls)
     fft          :      0.02s CPU      0.03s WALL (      11 calls)
     fftw         :     11.85s CPU     12.59s WALL (  140820 calls)
     davcio       :      0.03s CPU      0.04s WALL (     724 calls)
 
     Parallel routines
     fft_scatt_xy :      0.82s CPU      0.87s WALL (  140831 calls)
     fft_scatt_yz :      6.74s CPU      7.15s WALL (  140831 calls)
 
     PWSCF        :     16.95s CPU     19.02s WALL

 
   This run was terminated on:  17:56:44  29Nov2020            

=------------------------------------------------------------------------------=
   JOB DONE.
=------------------------------------------------------------------------------=
