mpijob CMD    : mpirun -f /tmp/mpiexec.params.k050801.22685
mpijob PARAMS : -d
        /home/k0508/k050801/research/dft/qeirreps/v1/qeirreps/reference/Si_nonsoc
        r1i0n0 24 omplace -nt 1
        "/home/k0508/k050801/research/dft/qe-6.2/bin/bands.x"

SGI MPT Placement option
--------------------------
omplace -nt 1

Node   MPI
------------
r1i0n0 24


     Program BANDS v.6.2 (svn rev. 13949:13950) starts on  8Apr2020 at 16:24:58 

     This program is part of the open-source Quantum ESPRESSO suite
     for quantum simulation of materials; please cite
         "P. Giannozzi et al., J. Phys.:Condens. Matter 21 395502 (2009);
         "P. Giannozzi et al., J. Phys.:Condens. Matter 29 465901 (2017);
          URL http://www.quantum-espresso.org", 
     in publications or presentations arising from this work. More details at
     http://www.quantum-espresso.org/quote

     Parallel version (MPI), running on    24 processors

     MPI processes distributed on     1 nodes
     R & G space division:  proc/nbgrp/npool/nimage =      24

     Reading data from directory:
     ./work/band/Si.save

     IMPORTANT: XC functional enforced from input :
     Exchange-correlation      = PBE ( 1  4  3  4 0 0)
     Any further DFT definition will be discarded
     Please, verify this is what you really want

 
     Parallelization info
     --------------------
     sticks:   dense  smooth     PW     G-vecs:    dense   smooth      PW
     Min          61      61     17                 1553     1553     238
     Max          62      62     18                 1556     1556     242
     Sum        1483    1483    421                37309    37309    5769
 
     high-symmetry point:  0.0000 0.0000 0.0000   x coordinate   0.0000
     high-symmetry point:  0.0000 0.7071 0.0000   x coordinate   0.7071
     high-symmetry point:  0.1768 0.7071 0.1768   x coordinate   0.9571
     high-symmetry point:  0.5303 0.5303 0.0000   x coordinate   0.9571
     high-symmetry point:  0.0000 0.0000 0.0000   x coordinate   1.7071
     high-symmetry point:  0.3536 0.3536 0.3536   x coordinate   2.3195
     high-symmetry point:  0.3536 0.7071 0.0000   x coordinate   2.8195
     high-symmetry point:  0.0000 0.7071 0.0000   x coordinate   3.1730

     Plottable bands (eV) written to file Si.band.gnu
     Bands written to file Si.band

 **************************************************************************

                    xk=(   0.00000,   0.00000,   0.00000  )

     point group O_h (m-3m) 
     there are 10 classes
     the character table:

       E     8C3   3C2   6C4   6C2'  i     8S6   3s_h  6S4   6s_d 
A_1g   1.00  1.00  1.00  1.00  1.00  1.00  1.00  1.00  1.00  1.00
A_2g   1.00  1.00  1.00 -1.00 -1.00  1.00  1.00  1.00 -1.00 -1.00
E_g    2.00 -1.00  2.00  0.00  0.00  2.00 -1.00  2.00  0.00  0.00
T_1g   3.00  0.00 -1.00  1.00 -1.00  3.00  0.00 -1.00  1.00 -1.00
T_2g   3.00  0.00 -1.00 -1.00  1.00  3.00  0.00 -1.00 -1.00  1.00
A_1u   1.00  1.00  1.00  1.00  1.00 -1.00 -1.00 -1.00 -1.00 -1.00
A_2u   1.00  1.00  1.00 -1.00 -1.00 -1.00 -1.00 -1.00  1.00  1.00
E_u    2.00 -1.00  2.00  0.00  0.00 -2.00  1.00 -2.00  0.00  0.00
T_1u   3.00  0.00 -1.00  1.00 -1.00 -3.00  0.00  1.00 -1.00  1.00
T_2u   3.00  0.00 -1.00 -1.00  1.00 -3.00  0.00  1.00  1.00 -1.00

     the symmetry operations in each class and the name of the first element:

     E        1
                                                                 
     8C3     17   19   20   18   24   21   22   23
                                                                 
     3C2      2    4    3
                                                                 
     6C4      7    8   15   16   12   11
                                                                 
     6C2'     5    6   14   13   10    9
                                                                 
     i       25
                                                                 
     8S6     41   43   44   42   48   45   46   47
                                                                 
     3s_h    26   28   27
                                                                 
     6S4     31   32   39   40   36   35
                                                                 
     6s_d    29   30   38   37   34   33
                                                                 

     Band symmetry, O_h (m-3m)  point group:

     e(  1 -  1) =     -5.80924  eV     1   --> A_1g G_1   G_1+
     e(  2 -  4) =      6.00888  eV     3   --> T_2g G_25' G_5+
     e(  5 -  7) =      8.55556  eV     3   --> T_1u G_15  G_4-
     e(  8 -  8) =      9.10588  eV     1   --> A_2u G_2'  G_2-

 **************************************************************************

 **************************************************************************

                    xk=(   0.00000,   0.01179,   0.00000  )

     point group C_4v (4mm) 
     there are  5 classes
     the character table:

       E     2C4   C2    2s_v  2s_d 
A_1    1.00  1.00  1.00  1.00  1.00
A_2    1.00  1.00  1.00 -1.00 -1.00
B_1    1.00 -1.00  1.00  1.00 -1.00
B_2    1.00 -1.00  1.00 -1.00  1.00
E      2.00  0.00 -2.00  0.00  0.00

     the symmetry operations in each class and the name of the first element:

     E        1
                                                                 
     2C4      3    4
                                                                 
     C2       2
                                                                 
     2s_v     5    6
                                                                 
     2s_d     7    8
                                                                 

     Band symmetry, C_4v (4mm)  point group:

     e(  1 -  1) =     -5.80805  eV     1   --> A_1  G_1 D_1   
     e(  2 -  2) =      6.00003  eV     1   --> B_2  G_4 D_2'  
     e(  3 -  4) =      6.00369  eV     2   --> E    G_5 D_5   
     e(  5 -  5) =      8.55258  eV     1   --> A_1  G_1 D_1   
     e(  6 -  7) =      8.56222  eV     2   --> E    G_5 D_5   
     e(  8 -  8) =      9.11457  eV     1   --> B_2  G_4 D_2'  

 **************************************************************************

 **************************************************************************

                    xk=(   0.00000,   0.02357,   0.00000  )

     Band symmetry, C_4v (4mm)  point group:

     e(  1 -  1) =     -5.80446  eV     1   --> A_1  G_1 D_1   
     e(  2 -  2) =      5.97378  eV     1   --> B_2  G_4 D_2'  
     e(  3 -  4) =      5.98829  eV     2   --> E    G_5 D_5   
     e(  5 -  5) =      8.54370  eV     1   --> A_1  G_1 D_1   
     e(  6 -  7) =      8.58204  eV     2   --> E    G_5 D_5   
     e(  8 -  8) =      9.14030  eV     1   --> B_2  G_4 D_2'  

 **************************************************************************

 **************************************************************************

                    xk=(   0.00000,   0.03536,   0.00000  )

     Band symmetry, C_4v (4mm)  point group:

     e(  1 -  1) =     -5.79850  eV     1   --> A_1  G_1 D_1   
     e(  2 -  2) =      5.93101  eV     1   --> B_2  G_4 D_2'  
     e(  3 -  4) =      5.96315  eV     2   --> E    G_5 D_5   
     e(  5 -  5) =      8.52903  eV     1   --> A_1  G_1 D_1   
     e(  6 -  7) =      8.61453  eV     2   --> E    G_5 D_5   
     e(  8 -  8) =      9.18208  eV     1   --> B_2  G_4 D_2'  

 **************************************************************************

 **************************************************************************

                    xk=(   0.00000,   0.04714,   0.00000  )

     Band symmetry, C_4v (4mm)  point group:

     e(  1 -  1) =     -5.79014  eV     1   --> A_1  G_1 D_1   
     e(  2 -  2) =      5.87305  eV     1   --> B_2  G_4 D_2'  
     e(  3 -  4) =      5.92903  eV     2   --> E    G_5 D_5   
     e(  5 -  5) =      8.50877  eV     1   --> A_1  G_1 D_1   
     e(  6 -  7) =      8.65895  eV     2   --> E    G_5 D_5   
     e(  8 -  8) =      9.23842  eV     1   --> B_2  G_4 D_2'  

 **************************************************************************

 **************************************************************************

                    xk=(   0.00000,   0.05893,   0.00000  )

     Band symmetry, C_4v (4mm)  point group:

     e(  1 -  1) =     -5.77941  eV     1   --> A_1  G_1 D_1   
     e(  2 -  2) =      5.80147  eV     1   --> B_2  G_4 D_2'  
     e(  3 -  4) =      5.88683  eV     2   --> E    G_5 D_5   
     e(  5 -  5) =      8.48317  eV     1   --> A_1  G_1 D_1   
     e(  6 -  7) =      8.71438  eV     2   --> E    G_5 D_5   
     e(  8 -  8) =      9.30749  eV     1   --> B_2  G_4 D_2'  

 **************************************************************************

 **************************************************************************

                    xk=(   0.00000,   0.07071,   0.00000  )

     Band symmetry, C_4v (4mm)  point group:

     e(  1 -  1) =     -5.76628  eV     1   --> A_1  G_1 D_1   
     e(  2 -  2) =      5.71795  eV     1   --> B_2  G_4 D_2'  
     e(  3 -  4) =      5.83754  eV     2   --> E    G_5 D_5   
     e(  5 -  5) =      8.45257  eV     1   --> A_1  G_1 D_1   
     e(  6 -  7) =      8.77982  eV     2   --> E    G_5 D_5   
     e(  8 -  8) =      9.38723  eV     1   --> B_2  G_4 D_2'  

 **************************************************************************

 **************************************************************************

                    xk=(   0.00000,   0.08250,   0.00000  )

     Band symmetry, C_4v (4mm)  point group:

     e(  1 -  1) =     -5.75078  eV     1   --> A_1  G_1 D_1   
     e(  2 -  2) =      5.62413  eV     1   --> B_2  G_4 D_2'  
     e(  3 -  4) =      5.78218  eV     2   --> E    G_5 D_5   
     e(  5 -  5) =      8.41731  eV     1   --> A_1  G_1 D_1   
     e(  6 -  7) =      8.85425  eV     2   --> E    G_5 D_5   
     e(  8 -  8) =      9.47551  eV     1   --> B_2  G_4 D_2'  

 **************************************************************************

 **************************************************************************

                    xk=(   0.00000,   0.09428,   0.00000  )

     Band symmetry, C_4v (4mm)  point group:

     e(  1 -  1) =     -5.73290  eV     1   --> A_1  G_1 D_1   
     e(  2 -  2) =      5.52153  eV     1   --> B_2  G_4 D_2'  
     e(  3 -  4) =      5.72172  eV     2   --> E    G_5 D_5   
     e(  5 -  5) =      8.37779  eV     1   --> A_1  G_1 D_1   
     e(  6 -  7) =      8.93668  eV     2   --> E    G_5 D_5   
     e(  8 -  8) =      9.57016  eV     1   --> B_2  G_4 D_2'  

 **************************************************************************

 **************************************************************************

                    xk=(   0.00000,   0.10607,   0.00000  )

     Band symmetry, C_4v (4mm)  point group:

     e(  1 -  1) =     -5.71265  eV     1   --> A_1  G_1 D_1   
     e(  2 -  2) =      5.41150  eV     1   --> B_2  G_4 D_2'  
     e(  3 -  4) =      5.65706  eV     2   --> E    G_5 D_5   
     e(  5 -  5) =      8.33441  eV     1   --> A_1  G_1 D_1   
     e(  6 -  7) =      9.02621  eV     2   --> E    G_5 D_5   
     e(  8 -  8) =      9.66895  eV     1   --> B_2  G_4 D_2'  

 **************************************************************************

 **************************************************************************

                    xk=(   0.00000,   0.11785,   0.00000  )

     Band symmetry, C_4v (4mm)  point group:

     e(  1 -  1) =     -5.69002  eV     1   --> A_1  G_1 D_1   
     e(  2 -  2) =      5.29522  eV     1   --> B_2  G_4 D_2'  
     e(  3 -  4) =      5.58902  eV     2   --> E    G_5 D_5   
     e(  5 -  5) =      8.28761  eV     1   --> A_1  G_1 D_1   
     e(  6 -  7) =      9.12200  eV     2   --> E    G_5 D_5   
     e(  8 -  8) =      9.76958  eV     1   --> B_2  G_4 D_2'  

 **************************************************************************

 **************************************************************************

                    xk=(   0.00000,   0.12964,   0.00000  )

     Band symmetry, C_4v (4mm)  point group:

     e(  1 -  1) =     -5.66502  eV     1   --> A_1  G_1 D_1   
     e(  2 -  2) =      5.17371  eV     1   --> B_2  G_4 D_2'  
     e(  3 -  4) =      5.51830  eV     2   --> E    G_5 D_5   
     e(  5 -  5) =      8.23780  eV     1   --> A_1  G_1 D_1   
     e(  6 -  7) =      9.22334  eV     2   --> E    G_5 D_5   
     e(  8 -  8) =      9.86954  eV     1   --> B_2  G_4 D_2'  

 **************************************************************************

 **************************************************************************

                    xk=(   0.00000,   0.14142,   0.00000  )

     Band symmetry, C_4v (4mm)  point group:

     e(  1 -  1) =     -5.63766  eV     1   --> A_1  G_1 D_1   
     e(  2 -  2) =      5.04780  eV     1   --> B_2  G_4 D_2'  
     e(  3 -  4) =      5.44554  eV     2   --> E    G_5 D_5   
     e(  5 -  5) =      8.18540  eV     1   --> A_1  G_1 D_1   
     e(  6 -  7) =      9.32957  eV     2   --> E    G_5 D_5   
     e(  8 -  8) =      9.96608  eV     1   --> B_2  G_4 D_2'  

 **************************************************************************

 **************************************************************************

                    xk=(   0.00000,   0.15321,   0.00000  )

     Band symmetry, C_4v (4mm)  point group:

     e(  1 -  1) =     -5.60794  eV     1   --> A_1  G_1 D_1   
     e(  2 -  2) =      4.91821  eV     1   --> B_2  G_4 D_2'  
     e(  3 -  4) =      5.37127  eV     2   --> E    G_5 D_5   
     e(  5 -  5) =      8.13079  eV     1   --> A_1  G_1 D_1   
     e(  6 -  7) =      9.44015  eV     2   --> E    G_5 D_5   
     e(  8 -  8) =     10.05601  eV     1   --> B_2  G_4 D_2'  

 **************************************************************************

 **************************************************************************

                    xk=(   0.00000,   0.16499,   0.00000  )

     Band symmetry, C_4v (4mm)  point group:

     e(  1 -  1) =     -5.57586  eV     1   --> A_1  G_1 D_1   
     e(  2 -  2) =      4.78552  eV     1   --> B_2  G_4 D_2'  
     e(  3 -  4) =      5.29597  eV     2   --> E    G_5 D_5   
     e(  5 -  5) =      8.07437  eV     1   --> A_1  G_1 D_1   
     e(  6 -  7) =      9.55459  eV     2   --> E    G_5 D_5   
     e(  8 -  8) =     10.13571  eV     1   --> B_2  G_4 D_2'  

 **************************************************************************

 **************************************************************************

                    xk=(   0.00000,   0.17678,   0.00000  )

     Band symmetry, C_4v (4mm)  point group:

     e(  1 -  1) =     -5.54143  eV     1   --> A_1  G_1 D_1   
     e(  2 -  2) =      4.65024  eV     1   --> B_2  G_4 D_2'  
     e(  3 -  4) =      5.22002  eV     2   --> E    G_5 D_5   
     e(  5 -  5) =      8.01649  eV     1   --> A_1  G_1 D_1   
     e(  6 -  7) =      9.67247  eV     2   --> E    G_5 D_5   
     e(  8 -  8) =     10.20117  eV     1   --> B_2  G_4 D_2'  

 **************************************************************************

 **************************************************************************

                    xk=(   0.00000,   0.18856,   0.00000  )

     Band symmetry, C_4v (4mm)  point group:

     e(  1 -  1) =     -5.50465  eV     1   --> A_1  G_1 D_1   
     e(  2 -  2) =      4.51278  eV     1   --> B_2  G_4 D_2'  
     e(  3 -  4) =      5.14377  eV     2   --> E    G_5 D_5   
     e(  5 -  5) =      7.95750  eV     1   --> A_1  G_1 D_1   
     e(  6 -  7) =      9.79344  eV     2   --> E    G_5 D_5   
     e(  8 -  8) =     10.24826  eV     1   --> B_2  G_4 D_2'  

 **************************************************************************

 **************************************************************************

                    xk=(   0.00000,   0.20035,   0.00000  )

     Band symmetry, C_4v (4mm)  point group:

     e(  1 -  1) =     -5.46554  eV     1   --> A_1  G_1 D_1   
     e(  2 -  2) =      4.37347  eV     1   --> B_2  G_4 D_2'  
     e(  3 -  4) =      5.06752  eV     2   --> E    G_5 D_5   
     e(  5 -  5) =      7.89771  eV     1   --> A_1  G_1 D_1   
     e(  6 -  7) =      9.91719  eV     2   --> E    G_5 D_5   
     e(  8 -  8) =     10.27339  eV     1   --> B_2  G_4 D_2'  

 **************************************************************************

 **************************************************************************

                    xk=(   0.00000,   0.21213,   0.00000  )

     Band symmetry, C_4v (4mm)  point group:

     e(  1 -  1) =     -5.42409  eV     1   --> A_1  G_1 D_1   
     e(  2 -  2) =      4.23260  eV     1   --> B_2  G_4 D_2'  
     e(  3 -  4) =      4.99152  eV     2   --> E    G_5 D_5   
     e(  5 -  5) =      7.83741  eV     1   --> A_1  G_1 D_1   
     e(  6 -  7) =     10.04344  eV     2   --> E    G_5 D_5   
     e(  8 -  8) =     10.27425  eV     1   --> B_2  G_4 D_2'  

 **************************************************************************

 **************************************************************************

                    xk=(   0.00000,   0.22392,   0.00000  )

     Band symmetry, C_4v (4mm)  point group:

     e(  1 -  1) =     -5.38031  eV     1   --> A_1  G_1 D_1   
     e(  2 -  2) =      4.09043  eV     1   --> B_2  G_4 D_2'  
     e(  3 -  4) =      4.91598  eV     2   --> E    G_5 D_5   
     e(  5 -  5) =      7.77689  eV     1   --> A_1  G_1 D_1   
     e(  6 -  7) =     10.17196  eV     2   --> E    G_5 D_5   
     e(  8 -  8) =     10.25048  eV     1   --> B_2  G_4 D_2'  

 **************************************************************************

 **************************************************************************

                    xk=(   0.00000,   0.23570,   0.00000  )

     Band symmetry, C_4v (4mm)  point group:

     e(  1 -  1) =     -5.33422  eV     1   --> A_1  G_1 D_1   
     e(  2 -  2) =      3.94715  eV     1   --> B_2  G_4 D_2'  
     e(  3 -  4) =      4.84111  eV     2   --> E    G_5 D_5   
     e(  5 -  5) =      7.71638  eV     1   --> A_1  G_1 D_1   
     e(  6 -  6) =     10.20370  eV     1   --> B_2  G_4 D_2'  
     e(  7 -  8) =     10.30254  eV     2   --> E    G_5 D_5   

 **************************************************************************

 **************************************************************************

                    xk=(   0.00000,   0.24749,   0.00000  )

     Band symmetry, C_4v (4mm)  point group:

     e(  1 -  1) =     -5.28581  eV     1   --> A_1  G_1 D_1   
     e(  2 -  2) =      3.80293  eV     1   --> B_2  G_4 D_2'  
     e(  3 -  4) =      4.76705  eV     2   --> E    G_5 D_5   
     e(  5 -  5) =      7.65613  eV     1   --> A_1  G_1 D_1   
     e(  6 -  6) =     10.13698  eV     1   --> B_2  G_4 D_2'  
     e(  7 -  8) =     10.43500  eV     2   --> E    G_5 D_5   

 **************************************************************************

 **************************************************************************

                    xk=(   0.00000,   0.25927,   0.00000  )

     Band symmetry, C_4v (4mm)  point group:

     e(  1 -  1) =     -5.23511  eV     1   --> A_1  G_1 D_1   
     e(  2 -  2) =      3.65793  eV     1   --> B_2  G_4 D_2'  
     e(  3 -  4) =      4.69396  eV     2   --> E    G_5 D_5   
     e(  5 -  5) =      7.59634  eV     1   --> A_1  G_1 D_1   
     e(  6 -  6) =     10.05399  eV     1   --> B_2  G_4 D_2'  
     e(  7 -  8) =     10.56918  eV     2   --> E    G_5 D_5   

 **************************************************************************

 **************************************************************************

                    xk=(   0.00000,   0.27106,   0.00000  )

     Band symmetry, C_4v (4mm)  point group:

     e(  1 -  1) =     -5.18210  eV     1   --> A_1  G_1 D_1   
     e(  2 -  2) =      3.51227  eV     1   --> B_2  G_4 D_2'  
     e(  3 -  4) =      4.62197  eV     2   --> E    G_5 D_5   
     e(  5 -  5) =      7.53721  eV     1   --> A_1  G_1 D_1   
     e(  6 -  6) =      9.95836  eV     1   --> B_2  G_4 D_2'  
     e(  7 -  8) =     10.70494  eV     2   --> E    G_5 D_5   

 **************************************************************************

 **************************************************************************

                    xk=(   0.00000,   0.28284,   0.00000  )

     Band symmetry, C_4v (4mm)  point group:

     e(  1 -  1) =     -5.12682  eV     1   --> A_1  G_1 D_1   
     e(  2 -  2) =      3.36606  eV     1   --> B_2  G_4 D_2'  
     e(  3 -  4) =      4.55118  eV     2   --> E    G_5 D_5   
     e(  5 -  5) =      7.47893  eV     1   --> A_1  G_1 D_1   
     e(  6 -  6) =      9.85332  eV     1   --> B_2  G_4 D_2'  
     e(  7 -  8) =     10.84215  eV     2   --> E    G_5 D_5   

 **************************************************************************

 **************************************************************************

                    xk=(   0.00000,   0.29463,   0.00000  )

     Band symmetry, C_4v (4mm)  point group:

     e(  1 -  1) =     -5.06925  eV     1   --> A_1  G_1 D_1   
     e(  2 -  2) =      3.21940  eV     1   --> B_2  G_4 D_2'  
     e(  3 -  4) =      4.48169  eV     2   --> E    G_5 D_5   
     e(  5 -  5) =      7.42165  eV     1   --> A_1  G_1 D_1   
     e(  6 -  6) =      9.74149  eV     1   --> B_2  G_4 D_2'  
     e(  7 -  8) =     10.98070  eV     2   --> E    G_5 D_5   

 **************************************************************************

 **************************************************************************

                    xk=(   0.00000,   0.30641,   0.00000  )

     Band symmetry, C_4v (4mm)  point group:

     e(  1 -  1) =     -5.00942  eV     1   --> A_1  G_1 D_1   
     e(  2 -  2) =      3.07237  eV     1   --> B_2  G_4 D_2'  
     e(  3 -  4) =      4.41359  eV     2   --> E    G_5 D_5   
     e(  5 -  5) =      7.36553  eV     1   --> A_1  G_1 D_1   
     e(  6 -  6) =      9.62502  eV     1   --> B_2  G_4 D_2'  
     e(  7 -  8) =     11.12049  eV     2   --> E    G_5 D_5   

 **************************************************************************

 **************************************************************************

                    xk=(   0.00000,   0.31820,   0.00000  )

     Band symmetry, C_4v (4mm)  point group:

     e(  1 -  1) =     -4.94734  eV     1   --> A_1  G_1 D_1   
     e(  2 -  2) =      2.92505  eV     1   --> B_2  G_4 D_2'  
     e(  3 -  4) =      4.34695  eV     2   --> E    G_5 D_5   
     e(  5 -  5) =      7.31070  eV     1   --> A_1  G_1 D_1   
     e(  6 -  6) =      9.50557  eV     1   --> B_2  G_4 D_2'  
     e(  7 -  8) =     11.26144  eV     2   --> E    G_5 D_5   

 **************************************************************************

 **************************************************************************

                    xk=(   0.00000,   0.32998,   0.00000  )

     Band symmetry, C_4v (4mm)  point group:

     e(  1 -  1) =     -4.88302  eV     1   --> A_1  G_1 D_1   
     e(  2 -  2) =      2.77752  eV     1   --> B_2  G_4 D_2'  
     e(  3 -  4) =      4.28184  eV     2   --> E    G_5 D_5   
     e(  5 -  5) =      7.25730  eV     1   --> A_1  G_1 D_1   
     e(  6 -  6) =      9.38444  eV     1   --> B_2  G_4 D_2'  
     e(  7 -  8) =     11.40346  eV     2   --> E    G_5 D_5   

 **************************************************************************

 **************************************************************************

                    xk=(   0.00000,   0.34177,   0.00000  )

     Band symmetry, C_4v (4mm)  point group:

     e(  1 -  1) =     -4.81646  eV     1   --> A_1  G_1 D_1   
     e(  2 -  2) =      2.62983  eV     1   --> B_2  G_4 D_2'  
     e(  3 -  4) =      4.21834  eV     2   --> E    G_5 D_5   
     e(  5 -  5) =      7.20545  eV     1   --> A_1  G_1 D_1   
     e(  6 -  6) =      9.26267  eV     1   --> B_2  G_4 D_2'  
     e(  7 -  8) =     11.54649  eV     2   --> E    G_5 D_5   

 **************************************************************************

 **************************************************************************

                    xk=(   0.00000,   0.35355,   0.00000  )

     Band symmetry, C_4v (4mm)  point group:

     e(  1 -  1) =     -4.74768  eV     1   --> A_1  G_1 D_1   
     e(  2 -  2) =      2.48204  eV     1   --> B_2  G_4 D_2'  
     e(  3 -  4) =      4.15648  eV     2   --> E    G_5 D_5   
     e(  5 -  5) =      7.15525  eV     1   --> A_1  G_1 D_1   
     e(  6 -  6) =      9.14106  eV     1   --> B_2  G_4 D_2'  
     e(  7 -  8) =     11.69046  eV     2   --> E    G_5 D_5   

 **************************************************************************

 **************************************************************************

                    xk=(   0.00000,   0.36534,   0.00000  )

     Band symmetry, C_4v (4mm)  point group:

     e(  1 -  1) =     -4.67670  eV     1   --> A_1  G_1 D_1   
     e(  2 -  2) =      2.33421  eV     1   --> B_2  G_4 D_2'  
     e(  3 -  4) =      4.09632  eV     2   --> E    G_5 D_5   
     e(  5 -  5) =      7.10680  eV     1   --> A_1  G_1 D_1   
     e(  6 -  6) =      9.02026  eV     1   --> B_2  G_4 D_2'  
     e(  7 -  8) =     11.83532  eV     2   --> E    G_5 D_5   

 **************************************************************************

 **************************************************************************

                    xk=(   0.00000,   0.37712,   0.00000  )

     Band symmetry, C_4v (4mm)  point group:

     e(  1 -  1) =     -4.60353  eV     1   --> A_1  G_1 D_1   
     e(  2 -  2) =      2.18639  eV     1   --> B_2  G_4 D_2'  
     e(  3 -  4) =      4.03791  eV     2   --> E    G_5 D_5   
     e(  5 -  5) =      7.06021  eV     1   --> A_1  G_1 D_1   
     e(  6 -  6) =      8.90077  eV     1   --> B_2  G_4 D_2'  
     e(  7 -  8) =     11.98102  eV     2   --> E    G_5 D_5   

 **************************************************************************

 **************************************************************************

                    xk=(   0.00000,   0.38891,   0.00000  )

     Band symmetry, C_4v (4mm)  point group:

     e(  1 -  1) =     -4.52817  eV     1   --> A_1  G_1 D_1   
     e(  2 -  2) =      2.03864  eV     1   --> B_2  G_4 D_2'  
     e(  3 -  4) =      3.98128  eV     2   --> E    G_5 D_5   
     e(  5 -  5) =      7.01555  eV     1   --> A_1  G_1 D_1   
     e(  6 -  6) =      8.78302  eV     1   --> B_2  G_4 D_2'  
     e(  7 -  8) =     12.12751  eV     2   --> E    G_5 D_5   

 **************************************************************************

 **************************************************************************

                    xk=(   0.00000,   0.40069,   0.00000  )

     Band symmetry, C_4v (4mm)  point group:

     e(  1 -  1) =     -4.45066  eV     1   --> A_1  G_1 D_1   
     e(  2 -  2) =      1.89100  eV     1   --> B_2  G_4 D_2'  
     e(  3 -  4) =      3.92648  eV     2   --> E    G_5 D_5   
     e(  5 -  5) =      6.97292  eV     1   --> A_1  G_1 D_1   
     e(  6 -  6) =      8.66733  eV     1   --> B_2  G_4 D_2'  
     e(  7 -  8) =     12.27475  eV     2   --> E    G_5 D_5   

 **************************************************************************

 **************************************************************************

                    xk=(   0.00000,   0.41248,   0.00000  )

     Band symmetry, C_4v (4mm)  point group:

     e(  1 -  1) =     -4.37100  eV     1   --> A_1  G_1 D_1   
     e(  2 -  2) =      1.74353  eV     1   --> B_2  G_4 D_2'  
     e(  3 -  4) =      3.87353  eV     2   --> E    G_5 D_5   
     e(  5 -  5) =      6.93237  eV     1   --> A_1  G_1 D_1   
     e(  6 -  6) =      8.55400  eV     1   --> B_2  G_4 D_2'  
     e(  7 -  8) =     12.42272  eV     2   --> E    G_5 D_5   

 **************************************************************************

 **************************************************************************

                    xk=(   0.00000,   0.42426,   0.00000  )

     Band symmetry, C_4v (4mm)  point group:

     e(  1 -  1) =     -4.28921  eV     1   --> A_1  G_1 D_1   
     e(  2 -  2) =      1.59627  eV     1   --> B_2  G_4 D_2'  
     e(  3 -  4) =      3.82247  eV     2   --> E    G_5 D_5   
     e(  5 -  5) =      6.89400  eV     1   --> A_1  G_1 D_1   
     e(  6 -  6) =      8.44322  eV     1   --> B_2  G_4 D_2'  
     e(  7 -  8) =     12.57136  eV     2   --> E    G_5 D_5   

 **************************************************************************

 **************************************************************************

                    xk=(   0.00000,   0.43605,   0.00000  )

     Band symmetry, C_4v (4mm)  point group:

     e(  1 -  1) =     -4.20530  eV     1   --> A_1  G_1 D_1   
     e(  2 -  2) =      1.44927  eV     1   --> B_2  G_4 D_2'  
     e(  3 -  4) =      3.77333  eV     2   --> E    G_5 D_5   
     e(  5 -  5) =      6.85786  eV     1   --> A_1  G_1 D_1   
     e(  6 -  6) =      8.33520  eV     1   --> B_2  G_4 D_2'  
     e(  7 -  8) =     12.72067  eV     2   --> E    G_5 D_5   

 **************************************************************************

 **************************************************************************

                    xk=(   0.00000,   0.44783,   0.00000  )

     Band symmetry, C_4v (4mm)  point group:

     e(  1 -  1) =     -4.11930  eV     1   --> A_1  G_1 D_1   
     e(  2 -  2) =      1.30259  eV     1   --> B_2  G_4 D_2'  
     e(  3 -  4) =      3.72613  eV     2   --> E    G_5 D_5   
     e(  5 -  5) =      6.82402  eV     1   --> A_1  G_1 D_1   
     e(  6 -  6) =      8.23009  eV     1   --> B_2  G_4 D_2'  
     e(  7 -  8) =     12.87060  eV     2   --> E    G_5 D_5   

 **************************************************************************

 **************************************************************************

                    xk=(   0.00000,   0.45962,   0.00000  )

     Band symmetry, C_4v (4mm)  point group:

     e(  1 -  1) =     -4.03122  eV     1   --> A_1  G_1 D_1   
     e(  2 -  2) =      1.15627  eV     1   --> B_2  G_4 D_2'  
     e(  3 -  4) =      3.68089  eV     2   --> E    G_5 D_5   
     e(  5 -  5) =      6.79254  eV     1   --> A_1  G_1 D_1   
     e(  6 -  6) =      8.12800  eV     1   --> B_2  G_4 D_2'  
     e(  7 -  8) =     13.02113  eV     2   --> E    G_5 D_5   

 **************************************************************************

 **************************************************************************

                    xk=(   0.00000,   0.47140,   0.00000  )

     Band symmetry, C_4v (4mm)  point group:

     e(  1 -  1) =     -3.94109  eV     1   --> A_1  G_1 D_1   
     e(  2 -  2) =      1.01036  eV     1   --> B_2  G_4 D_2'  
     e(  3 -  4) =      3.63764  eV     2   --> E    G_5 D_5   
     e(  5 -  5) =      6.76347  eV     1   --> A_1  G_1 D_1   
     e(  6 -  6) =      8.02904  eV     1   --> B_2  G_4 D_2'  
     e(  7 -  8) =     13.17224  eV     2   --> E    G_5 D_5   

 **************************************************************************

 **************************************************************************

                    xk=(   0.00000,   0.48319,   0.00000  )

     Band symmetry, C_4v (4mm)  point group:

     e(  1 -  1) =     -3.84891  eV     1   --> A_1  G_1 D_1   
     e(  2 -  2) =      0.86491  eV     1   --> B_2  G_4 D_2'  
     e(  3 -  4) =      3.59639  eV     2   --> E    G_5 D_5   
     e(  5 -  5) =      6.73686  eV     1   --> A_1  G_1 D_1   
     e(  6 -  6) =      7.93330  eV     1   --> B_2  G_4 D_2'  
     e(  7 -  8) =     13.32388  eV     2   --> E    G_5 D_5   

 **************************************************************************

 **************************************************************************

                    xk=(   0.00000,   0.49497,   0.00000  )

     Band symmetry, C_4v (4mm)  point group:

     e(  1 -  1) =     -3.75472  eV     1   --> A_1  G_1 D_1   
     e(  2 -  2) =      0.71997  eV     1   --> B_2  G_4 D_2'  
     e(  3 -  4) =      3.55716  eV     2   --> E    G_5 D_5   
     e(  5 -  5) =      6.71278  eV     1   --> A_1  G_1 D_1   
     e(  6 -  6) =      7.84083  eV     1   --> B_2  G_4 D_2'  
     e(  7 -  8) =     13.47604  eV     2   --> E    G_5 D_5   

 **************************************************************************

 **************************************************************************

                    xk=(   0.00000,   0.50676,   0.00000  )

     Band symmetry, C_4v (4mm)  point group:

     e(  1 -  1) =     -3.65854  eV     1   --> A_1  G_1 D_1   
     e(  2 -  2) =      0.57559  eV     1   --> B_2  G_4 D_2'  
     e(  3 -  4) =      3.51997  eV     2   --> E    G_5 D_5   
     e(  5 -  5) =      6.69127  eV     1   --> A_1  G_1 D_1   
     e(  6 -  6) =      7.75170  eV     1   --> B_2  G_4 D_2'  
     e(  7 -  8) =     13.62868  eV     2   --> E    G_5 D_5   

 **************************************************************************

 **************************************************************************

                    xk=(   0.00000,   0.51854,   0.00000  )

     Band symmetry, C_4v (4mm)  point group:

     e(  1 -  1) =     -3.56038  eV     1   --> A_1  G_1 D_1   
     e(  2 -  2) =      0.43183  eV     1   --> B_2  G_4 D_2'  
     e(  3 -  4) =      3.48484  eV     2   --> E    G_5 D_5   
     e(  5 -  5) =      6.67237  eV     1   --> A_1  G_1 D_1   
     e(  6 -  6) =      7.66593  eV     1   --> B_2  G_4 D_2'  
     e(  7 -  8) =     13.78174  eV     2   --> E    G_5 D_5   

 **************************************************************************

 **************************************************************************

                    xk=(   0.00000,   0.53033,   0.00000  )

     Band symmetry, C_4v (4mm)  point group:

     e(  1 -  1) =     -3.46028  eV     1   --> A_1  G_1 D_1   
     e(  2 -  2) =      0.28872  eV     1   --> B_2  G_4 D_2'  
     e(  3 -  4) =      3.45177  eV     2   --> E    G_5 D_5   
     e(  5 -  5) =      6.65613  eV     1   --> A_1  G_1 D_1   
     e(  6 -  6) =      7.58357  eV     1   --> B_2  G_4 D_2'  
     e(  7 -  8) =     13.93518  eV     2   --> E    G_5 D_5   

 **************************************************************************

 **************************************************************************

                    xk=(   0.00000,   0.54212,   0.00000  )

     Band symmetry, C_4v (4mm)  point group:

     e(  1 -  1) =     -3.35825  eV     1   --> A_1  G_1 D_1   
     e(  2 -  2) =      0.14633  eV     1   --> B_2  G_4 D_2'  
     e(  3 -  4) =      3.42079  eV     2   --> E    G_5 D_5   
     e(  5 -  5) =      6.64260  eV     1   --> A_1  G_1 D_1   
     e(  6 -  6) =      7.50464  eV     1   --> B_2  G_4 D_2'  
     e(  7 -  8) =     14.08893  eV     2   --> E    G_5 D_5   

 **************************************************************************

 **************************************************************************

                    xk=(   0.00000,   0.55390,   0.00000  )

     Band symmetry, C_4v (4mm)  point group:

     e(  1 -  1) =     -3.25433  eV     1   --> A_1  G_1 D_1   
     e(  2 -  2) =      0.00471  eV     1   --> B_2  G_4 D_2'  
     e(  3 -  4) =      3.39189  eV     2   --> E    G_5 D_5   
     e(  5 -  5) =      6.63181  eV     1   --> A_1  G_1 D_1   
     e(  6 -  6) =      7.42915  eV     1   --> B_2  G_4 D_2'  
     e(  7 -  8) =     14.24289  eV     2   --> E    G_5 D_5   

 **************************************************************************

 **************************************************************************

                    xk=(   0.00000,   0.56569,   0.00000  )

     Band symmetry, C_4v (4mm)  point group:

     e(  1 -  1) =     -3.14853  eV     1   --> A_1  G_1 D_1   
     e(  2 -  2) =     -0.13610  eV     1   --> B_2  G_4 D_2'  
     e(  3 -  4) =      3.36510  eV     2   --> E    G_5 D_5   
     e(  5 -  5) =      6.62381  eV     1   --> A_1  G_1 D_1   
     e(  6 -  6) =      7.35710  eV     1   --> B_2  G_4 D_2'  
     e(  7 -  8) =     14.39694  eV     2   --> E    G_5 D_5   

 **************************************************************************

 **************************************************************************

                    xk=(   0.00000,   0.57747,   0.00000  )

     Band symmetry, C_4v (4mm)  point group:

     e(  1 -  1) =     -3.04089  eV     1   --> A_1  G_1 D_1   
     e(  2 -  2) =     -0.27604  eV     1   --> B_2  G_4 D_2'  
     e(  3 -  4) =      3.34042  eV     2   --> E    G_5 D_5   
     e(  5 -  5) =      6.61864  eV     1   --> A_1  G_1 D_1   
     e(  6 -  6) =      7.28851  eV     1   --> B_2  G_4 D_2'  
     e(  7 -  8) =     14.55093  eV     2   --> E    G_5 D_5   

 **************************************************************************

 **************************************************************************

                    xk=(   0.00000,   0.58926,   0.00000  )

     Band symmetry, C_4v (4mm)  point group:

     e(  1 -  1) =     -2.93144  eV     1   --> A_1  G_1 D_1   
     e(  2 -  2) =     -0.41506  eV     1   --> B_2  G_4 D_2'  
     e(  3 -  4) =      3.31786  eV     2   --> E    G_5 D_5   
     e(  5 -  5) =      6.61633  eV     1   --> A_1  G_1 D_1   
     e(  6 -  6) =      7.22337  eV     1   --> B_2  G_4 D_2'  
     e(  7 -  8) =     14.70462  eV     2   --> E    G_5 D_5   

 **************************************************************************

 **************************************************************************

                    xk=(   0.00000,   0.60104,   0.00000  )

     Band symmetry, C_4v (4mm)  point group:

     e(  1 -  1) =     -2.82020  eV     1   --> A_1  G_1 D_1   
     e(  2 -  2) =     -0.55312  eV     1   --> B_2  G_4 D_2'  
     e(  3 -  4) =      3.29742  eV     2   --> E    G_5 D_5   
     e(  5 -  5) =      6.61693  eV     1   --> A_1  G_1 D_1   
     e(  6 -  6) =      7.16167  eV     1   --> B_2  G_4 D_2'  
     e(  7 -  8) =     14.85770  eV     2   --> E    G_5 D_5   

 **************************************************************************

 **************************************************************************

                    xk=(   0.00000,   0.61283,   0.00000  )

     Band symmetry, C_4v (4mm)  point group:

     e(  1 -  1) =     -2.70721  eV     1   --> A_1  G_1 D_1   
     e(  2 -  2) =     -0.69016  eV     1   --> B_2  G_4 D_2'  
     e(  3 -  4) =      3.27912  eV     2   --> E    G_5 D_5   
     e(  5 -  5) =      6.62046  eV     1   --> A_1  G_1 D_1   
     e(  6 -  6) =      7.10340  eV     1   --> B_2  G_4 D_2'  
     e(  7 -  8) =     15.00972  eV     2   --> E    G_5 D_5   

 **************************************************************************

 **************************************************************************

                    xk=(   0.00000,   0.62461,   0.00000  )

     Band symmetry, C_4v (4mm)  point group:

     e(  1 -  1) =     -2.59249  eV     1   --> A_1  G_1 D_1   
     e(  2 -  2) =     -0.82613  eV     1   --> B_2  G_4 D_2'  
     e(  3 -  4) =      3.26296  eV     2   --> E    G_5 D_5   
     e(  5 -  5) =      6.62697  eV     1   --> A_1  G_1 D_1   
     e(  6 -  6) =      7.04855  eV     1   --> B_2  G_4 D_2'  
     e(  7 -  8) =     15.15999  eV     2   --> E    G_5 D_5   

 **************************************************************************

 **************************************************************************

                    xk=(   0.00000,   0.63640,   0.00000  )

     Band symmetry, C_4v (4mm)  point group:

     e(  1 -  1) =     -2.47609  eV     1   --> A_1  G_1 D_1   
     e(  2 -  2) =     -0.96100  eV     1   --> B_2  G_4 D_2'  
     e(  3 -  4) =      3.24895  eV     2   --> E    G_5 D_5   
     e(  5 -  5) =      6.63649  eV     1   --> A_1  G_1 D_1   
     e(  6 -  6) =      6.99710  eV     1   --> B_2  G_4 D_2'  
     e(  7 -  8) =     15.30748  eV     2   --> E    G_5 D_5   

 **************************************************************************

 **************************************************************************

                    xk=(   0.00000,   0.64818,   0.00000  )

     Band symmetry, C_4v (4mm)  point group:

     e(  1 -  1) =     -2.35803  eV     1   --> A_1  G_1 D_1   
     e(  2 -  2) =     -1.09470  eV     1   --> B_2  G_4 D_2'  
     e(  3 -  4) =      3.23708  eV     2   --> E    G_5 D_5   
     e(  5 -  5) =      6.64905  eV     1   --> A_1  G_1 D_1   
     e(  6 -  6) =      6.94904  eV     1   --> B_2  G_4 D_2'  
     e(  7 -  8) =     15.45055  eV     2   --> E    G_5 D_5   

 **************************************************************************

 **************************************************************************

                    xk=(   0.00000,   0.65997,   0.00000  )

     Band symmetry, C_4v (4mm)  point group:

     e(  1 -  1) =     -2.23835  eV     1   --> A_1  G_1 D_1   
     e(  2 -  2) =     -1.22719  eV     1   --> B_2  G_4 D_2'  
     e(  3 -  4) =      3.22736  eV     2   --> E    G_5 D_5   
     e(  5 -  5) =      6.66469  eV     1   --> A_1  G_1 D_1   
     e(  6 -  6) =      6.90433  eV     1   --> B_2  G_4 D_2'  
     e(  7 -  8) =     15.58648  eV     2   --> E    G_5 D_5   

 **************************************************************************

 **************************************************************************

                    xk=(   0.00000,   0.67175,   0.00000  )

     Band symmetry, C_4v (4mm)  point group:

     e(  1 -  1) =     -2.11709  eV     1   --> A_1  G_1 D_1   
     e(  2 -  2) =     -1.35843  eV     1   --> B_2  G_4 D_2'  
     e(  3 -  4) =      3.21980  eV     2   --> E    G_5 D_5   
     e(  5 -  5) =      6.68344  eV     1   --> A_1  G_1 D_1   
     e(  6 -  6) =      6.86297  eV     1   --> B_2  G_4 D_2'  
     e(  7 -  8) =     15.71066  eV     2   --> E    G_5 D_5   

 **************************************************************************

 **************************************************************************

                    xk=(   0.00000,   0.68354,   0.00000  )

     Band symmetry, C_4v (4mm)  point group:

     e(  1 -  1) =     -1.99428  eV     1   --> A_1  G_1 D_1   
     e(  2 -  2) =     -1.48837  eV     1   --> B_2  G_4 D_2'  
     e(  3 -  4) =      3.21440  eV     2   --> E    G_5 D_5   
     e(  5 -  5) =      6.70533  eV     1   --> A_1  G_1 D_1   
     e(  6 -  6) =      6.82492  eV     1   --> B_2  G_4 D_2'  
     e(  7 -  8) =     15.81528  eV     2   --> E    G_5 D_5   

 **************************************************************************

 **************************************************************************

                    xk=(   0.00000,   0.69532,   0.00000  )

     Band symmetry, C_4v (4mm)  point group:

     e(  1 -  1) =     -1.86996  eV     1   --> A_1  G_1 D_1   
     e(  2 -  2) =     -1.61697  eV     1   --> B_2  G_4 D_2'  
     e(  3 -  4) =      3.21116  eV     2   --> E    G_5 D_5   
     e(  5 -  5) =      6.73039  eV     1   --> A_1  G_1 D_1   
     e(  6 -  6) =      6.79016  eV     1   --> B_2  G_4 D_2'  
     e(  7 -  8) =     15.88810  eV     2   --> E    G_5 D_5   

 **************************************************************************

 **************************************************************************

                    xk=(   0.00000,   0.70711,   0.00000  )

     zone border point and non-symmorphic group 
     symmetry decomposition not available

 **************************************************************************

 **************************************************************************

                    xk=(   0.00295,   0.70711,   0.00295  )

     point group C_2v (mm2) 
     there are  4 classes
     the character table:

       E     C2    s_v   s_v' 
A_1    1.00  1.00  1.00  1.00
A_2    1.00  1.00 -1.00 -1.00
B_1    1.00 -1.00  1.00 -1.00
B_2    1.00 -1.00 -1.00  1.00

     the symmetry operations in each class and the name of the first element:

     E        1
                                                                 
     C2       2
                                                                 
     s_v      3
                                                                 
     s_v'     4
                                                                 

     Band symmetry, C_2v (mm2)  point group:

     e(  1 -  1) =     -1.74424  eV     1   --> B_2  D_4  S_4  
     e(  2 -  2) =     -1.74402  eV     1   --> A_1  D_1  S_1  
     e(  3 -  3) =      3.20906  eV     1   --> B_2  D_4  S_4  
     e(  4 -  4) =      3.21020  eV     1   --> B_1  D_3  S_3  
     e(  5 -  5) =      6.75880  eV     1   --> A_1  D_1  S_1  
     e(  6 -  6) =      6.76018  eV     1   --> B_2  D_4  S_4  
     e(  7 -  7) =     15.91314  eV     1   --> A_2  D_2  S_2  
     e(  8 -  8) =     15.91384  eV     1   --> A_1  D_1  S_1  

 **************************************************************************

 **************************************************************************

                    xk=(   0.00589,   0.70711,   0.00589  )

     Band symmetry, C_2v (mm2)  point group:

     e(  1 -  1) =     -1.74444  eV     1   --> B_2  D_4  S_4  
     e(  2 -  2) =     -1.74353  eV     1   --> A_1  D_1  S_1  
     e(  3 -  3) =      3.20601  eV     1   --> B_2  D_4  S_4  
     e(  4 -  4) =      3.21056  eV     1   --> B_1  D_3  S_3  
     e(  5 -  5) =      6.75921  eV     1   --> A_1  D_1  S_1  
     e(  6 -  6) =      6.76473  eV     1   --> B_2  D_4  S_4  
     e(  7 -  7) =     15.90831  eV     1   --> A_2  D_2  S_2  
     e(  8 -  8) =     15.91111  eV     1   --> A_1  D_1  S_1  

 **************************************************************************

 **************************************************************************

                    xk=(   0.00884,   0.70711,   0.00884  )

     Band symmetry, C_2v (mm2)  point group:

     e(  1 -  1) =     -1.74477  eV     1   --> B_2  D_4  S_4  
     e(  2 -  2) =     -1.74272  eV     1   --> A_1  D_1  S_1  
     e(  3 -  3) =      3.20095  eV     1   --> B_2  D_4  S_4  
     e(  4 -  4) =      3.21116  eV     1   --> B_1  D_3  S_3  
     e(  5 -  5) =      6.75990  eV     1   --> A_1  D_1  S_1  
     e(  6 -  6) =      6.77230  eV     1   --> B_2  D_4  S_4  
     e(  7 -  7) =     15.90030  eV     1   --> A_2  D_2  S_2  
     e(  8 -  8) =     15.90656  eV     1   --> A_1  D_1  S_1  

 **************************************************************************

 **************************************************************************

                    xk=(   0.01179,   0.70711,   0.01179  )

     Band symmetry, C_2v (mm2)  point group:

     e(  1 -  1) =     -1.74523  eV     1   --> B_2  D_4  S_4  
     e(  2 -  2) =     -1.74158  eV     1   --> A_1  D_1  S_1  
     e(  3 -  3) =      3.19390  eV     1   --> B_2  D_4  S_4  
     e(  4 -  4) =      3.21200  eV     1   --> B_1  D_3  S_3  
     e(  5 -  5) =      6.76086  eV     1   --> A_1  D_1  S_1  
     e(  6 -  6) =      6.78285  eV     1   --> B_2  D_4  S_4  
     e(  7 -  7) =     15.88917  eV     1   --> A_2  D_2  S_2  
     e(  8 -  8) =     15.90022  eV     1   --> A_1  D_1  S_1  

 **************************************************************************

 **************************************************************************

                    xk=(   0.01473,   0.70711,   0.01473  )

     Band symmetry, C_2v (mm2)  point group:

     e(  1 -  1) =     -1.74582  eV     1   --> B_2  D_4  S_4  
     e(  2 -  2) =     -1.74012  eV     1   --> A_1  D_1  S_1  
     e(  3 -  3) =      3.18490  eV     1   --> B_2  D_4  S_4  
     e(  4 -  4) =      3.21307  eV     1   --> B_1  D_3  S_3  
     e(  5 -  5) =      6.76210  eV     1   --> A_1  D_1  S_1  
     e(  6 -  6) =      6.79635  eV     1   --> B_2  D_4  S_4  
     e(  7 -  7) =     15.87502  eV     1   --> A_2  D_2  S_2  
     e(  8 -  8) =     15.89211  eV     1   --> A_1  D_1  S_1  

 **************************************************************************

 **************************************************************************

                    xk=(   0.01768,   0.70711,   0.01768  )

     Band symmetry, C_2v (mm2)  point group:

     e(  1 -  1) =     -1.74655  eV     1   --> B_2  D_4  S_4  
     e(  2 -  2) =     -1.73834  eV     1   --> A_1  D_1  S_1  
     e(  3 -  3) =      3.17402  eV     1   --> B_2  D_4  S_4  
     e(  4 -  4) =      3.21439  eV     1   --> B_1  D_3  S_3  
     e(  5 -  5) =      6.76361  eV     1   --> A_1  D_1  S_1  
     e(  6 -  6) =      6.81275  eV     1   --> B_2  D_4  S_4  
     e(  7 -  7) =     15.85796  eV     1   --> A_2  D_2  S_2  
     e(  8 -  8) =     15.88227  eV     1   --> A_1  D_1  S_1  

 **************************************************************************

 **************************************************************************

                    xk=(   0.02062,   0.70711,   0.02062  )

     Band symmetry, C_2v (mm2)  point group:

     e(  1 -  1) =     -1.74742  eV     1   --> B_2  D_4  S_4  
     e(  2 -  2) =     -1.73623  eV     1   --> A_1  D_1  S_1  
     e(  3 -  3) =      3.16130  eV     1   --> B_2  D_4  S_4  
     e(  4 -  4) =      3.21595  eV     1   --> B_1  D_3  S_3  
     e(  5 -  5) =      6.76539  eV     1   --> A_1  D_1  S_1  
     e(  6 -  6) =      6.83198  eV     1   --> B_2  D_4  S_4  
     e(  7 -  7) =     15.83809  eV     1   --> A_2  D_2  S_2  
     e(  8 -  8) =     15.87073  eV     1   --> A_1  D_1  S_1  

 **************************************************************************

 **************************************************************************

                    xk=(   0.02357,   0.70711,   0.02357  )

     Band symmetry, C_2v (mm2)  point group:

     e(  1 -  1) =     -1.74843  eV     1   --> B_2  D_4  S_4  
     e(  2 -  2) =     -1.73380  eV     1   --> A_1  D_1  S_1  
     e(  3 -  3) =      3.14681  eV     1   --> B_2  D_4  S_4  
     e(  4 -  4) =      3.21774  eV     1   --> B_1  D_3  S_3  
     e(  5 -  5) =      6.76746  eV     1   --> A_1  D_1  S_1  
     e(  6 -  6) =      6.85399  eV     1   --> B_2  D_4  S_4  
     e(  7 -  7) =     15.81557  eV     1   --> A_2  D_2  S_2  
     e(  8 -  8) =     15.85752  eV     1   --> A_1  D_1  S_1  

 **************************************************************************

 **************************************************************************

                    xk=(   0.02652,   0.70711,   0.02652  )

     Band symmetry, C_2v (mm2)  point group:

     e(  1 -  1) =     -1.74958  eV     1   --> B_2  D_4  S_4  
     e(  2 -  2) =     -1.73104  eV     1   --> A_1  D_1  S_1  
     e(  3 -  3) =      3.13064  eV     1   --> B_2  D_4  S_4  
     e(  4 -  4) =      3.21977  eV     1   --> B_1  D_3  S_3  
     e(  5 -  5) =      6.76979  eV     1   --> A_1  D_1  S_1  
     e(  6 -  6) =      6.87871  eV     1   --> B_2  D_4  S_4  
     e(  7 -  7) =     15.79052  eV     1   --> A_2  D_2  S_2  
     e(  8 -  8) =     15.84271  eV     1   --> A_1  D_1  S_1  

 **************************************************************************

 **************************************************************************

                    xk=(   0.02946,   0.70711,   0.02946  )

     Band symmetry, C_2v (mm2)  point group:

     e(  1 -  1) =     -1.75088  eV     1   --> B_2  D_4  S_4  
     e(  2 -  2) =     -1.72796  eV     1   --> A_1  D_1  S_1  
     e(  3 -  3) =      3.11286  eV     1   --> B_2  D_4  S_4  
     e(  4 -  4) =      3.22204  eV     1   --> B_1  D_3  S_3  
     e(  5 -  5) =      6.77240  eV     1   --> A_1  D_1  S_1  
     e(  6 -  6) =      6.90604  eV     1   --> B_2  D_4  S_4  
     e(  7 -  7) =     15.76311  eV     1   --> A_2  D_2  S_2  
     e(  8 -  8) =     15.82633  eV     1   --> A_1  D_1  S_1  

 **************************************************************************

 **************************************************************************

                    xk=(   0.03241,   0.70711,   0.03241  )

     Band symmetry, C_2v (mm2)  point group:

     e(  1 -  1) =     -1.75233  eV     1   --> B_2  D_4  S_4  
     e(  2 -  2) =     -1.72456  eV     1   --> A_1  D_1  S_1  
     e(  3 -  3) =      3.09355  eV     1   --> B_2  D_4  S_4  
     e(  4 -  4) =      3.22455  eV     1   --> B_1  D_3  S_3  
     e(  5 -  5) =      6.77529  eV     1   --> A_1  D_1  S_1  
     e(  6 -  6) =      6.93592  eV     1   --> B_2  D_4  S_4  
     e(  7 -  7) =     15.73348  eV     1   --> A_2  D_2  S_2  
     e(  8 -  8) =     15.80845  eV     1   --> A_1  D_1  S_1  

 **************************************************************************

 **************************************************************************

                    xk=(   0.03536,   0.70711,   0.03536  )

     Band symmetry, C_2v (mm2)  point group:

     e(  1 -  1) =     -1.75394  eV     1   --> B_2  D_4  S_4  
     e(  2 -  2) =     -1.72083  eV     1   --> A_1  D_1  S_1  
     e(  3 -  3) =      3.07281  eV     1   --> B_2  D_4  S_4  
     e(  4 -  4) =      3.22730  eV     1   --> B_1  D_3  S_3  
     e(  5 -  5) =      6.77844  eV     1   --> A_1  D_1  S_1  
     e(  6 -  6) =      6.96825  eV     1   --> B_2  D_4  S_4  
     e(  7 -  7) =     15.70178  eV     1   --> A_2  D_2  S_2  
     e(  8 -  8) =     15.78912  eV     1   --> A_1  D_1  S_1  

 **************************************************************************

 **************************************************************************

                    xk=(   0.03830,   0.70711,   0.03830  )

     Band symmetry, C_2v (mm2)  point group:

     e(  1 -  1) =     -1.75570  eV     1   --> B_2  D_4  S_4  
     e(  2 -  2) =     -1.71678  eV     1   --> A_1  D_1  S_1  
     e(  3 -  3) =      3.05073  eV     1   --> B_2  D_4  S_4  
     e(  4 -  4) =      3.23029  eV     1   --> B_1  D_3  S_3  
     e(  5 -  5) =      6.78187  eV     1   --> A_1  D_1  S_1  
     e(  6 -  6) =      7.00295  eV     1   --> B_2  D_4  S_4  
     e(  7 -  7) =     15.66816  eV     1   --> A_2  D_2  S_2  
     e(  8 -  8) =     15.76839  eV     1   --> A_1  D_1  S_1  

 **************************************************************************

 **************************************************************************

                    xk=(   0.04125,   0.70711,   0.04125  )

     Band symmetry, C_2v (mm2)  point group:

     e(  1 -  1) =     -1.75762  eV     1   --> B_2  D_4  S_4  
     e(  2 -  2) =     -1.71240  eV     1   --> A_1  D_1  S_1  
     e(  3 -  3) =      3.02739  eV     1   --> B_2  D_4  S_4  
     e(  4 -  4) =      3.23351  eV     1   --> B_1  D_3  S_3  
     e(  5 -  5) =      6.78558  eV     1   --> A_1  D_1  S_1  
     e(  6 -  6) =      7.03993  eV     1   --> B_2  D_4  S_4  
     e(  7 -  7) =     15.63277  eV     1   --> A_2  D_2  S_2  
     e(  8 -  8) =     15.74633  eV     1   --> A_1  D_1  S_1  

 **************************************************************************

 **************************************************************************

                    xk=(   0.04419,   0.70711,   0.04419  )

     Band symmetry, C_2v (mm2)  point group:

     e(  1 -  1) =     -1.75972  eV     1   --> B_2  D_4  S_4  
     e(  2 -  2) =     -1.70770  eV     1   --> A_1  D_1  S_1  
     e(  3 -  3) =      3.00290  eV     1   --> B_2  D_4  S_4  
     e(  4 -  4) =      3.23697  eV     1   --> B_1  D_3  S_3  
     e(  5 -  5) =      6.78955  eV     1   --> A_1  D_1  S_1  
     e(  6 -  6) =      7.07910  eV     1   --> B_2  D_4  S_4  
     e(  7 -  7) =     15.59573  eV     1   --> A_2  D_2  S_2  
     e(  8 -  8) =     15.72299  eV     1   --> A_1  D_1  S_1  

 **************************************************************************

 **************************************************************************

                    xk=(   0.04714,   0.70711,   0.04714  )

     Band symmetry, C_2v (mm2)  point group:

     e(  1 -  1) =     -1.76199  eV     1   --> B_2  D_4  S_4  
     e(  2 -  2) =     -1.70267  eV     1   --> A_1  D_1  S_1  
     e(  3 -  3) =      2.97735  eV     1   --> B_2  D_4  S_4  
     e(  4 -  4) =      3.24067  eV     1   --> B_1  D_3  S_3  
     e(  5 -  5) =      6.79380  eV     1   --> A_1  D_1  S_1  
     e(  6 -  6) =      7.12037  eV     1   --> B_2  D_4  S_4  
     e(  7 -  7) =     15.55719  eV     1   --> A_2  D_2  S_2  
     e(  8 -  8) =     15.69844  eV     1   --> A_1  D_1  S_1  

 **************************************************************************

 **************************************************************************

                    xk=(   0.05009,   0.70711,   0.05009  )

     Band symmetry, C_2v (mm2)  point group:

     e(  1 -  1) =     -1.76443  eV     1   --> B_2  D_4  S_4  
     e(  2 -  2) =     -1.69732  eV     1   --> A_1  D_1  S_1  
     e(  3 -  3) =      2.95083  eV     1   --> B_2  D_4  S_4  
     e(  4 -  4) =      3.24461  eV     1   --> B_1  D_3  S_3  
     e(  5 -  5) =      6.79833  eV     1   --> A_1  D_1  S_1  
     e(  6 -  6) =      7.16366  eV     1   --> B_2  D_4  S_4  
     e(  7 -  7) =     15.51727  eV     1   --> A_2  D_2  S_2  
     e(  8 -  8) =     15.67274  eV     1   --> A_1  D_1  S_1  

 **************************************************************************

 **************************************************************************

                    xk=(   0.05303,   0.70711,   0.05303  )

     Band symmetry, C_2v (mm2)  point group:

     e(  1 -  1) =     -1.76707  eV     1   --> B_2  D_4  S_4  
     e(  2 -  2) =     -1.69165  eV     1   --> A_1  D_1  S_1  
     e(  3 -  3) =      2.92342  eV     1   --> B_2  D_4  S_4  
     e(  4 -  4) =      3.24878  eV     1   --> B_1  D_3  S_3  
     e(  5 -  5) =      6.80312  eV     1   --> A_1  D_1  S_1  
     e(  6 -  6) =      7.20888  eV     1   --> B_2  D_4  S_4  
     e(  7 -  7) =     15.47607  eV     1   --> A_2  D_2  S_2  
     e(  8 -  8) =     15.64593  eV     1   --> A_1  D_1  S_1  

 **************************************************************************

 **************************************************************************

                    xk=(   0.05598,   0.70711,   0.05598  )

     Band symmetry, C_2v (mm2)  point group:

     e(  1 -  1) =     -1.76989  eV     1   --> B_2  D_4  S_4  
     e(  2 -  2) =     -1.68566  eV     1   --> A_1  D_1  S_1  
     e(  3 -  3) =      2.89523  eV     1   --> B_2  D_4  S_4  
     e(  4 -  4) =      3.25319  eV     1   --> B_1  D_3  S_3  
     e(  5 -  5) =      6.80818  eV     1   --> A_1  D_1  S_1  
     e(  6 -  6) =      7.25595  eV     1   --> B_2  D_4  S_4  
     e(  7 -  7) =     15.43372  eV     1   --> A_2  D_2  S_2  
     e(  8 -  8) =     15.61809  eV     1   --> A_1  D_1  S_1  

 **************************************************************************

 **************************************************************************

                    xk=(   0.05893,   0.70711,   0.05893  )

     Band symmetry, C_2v (mm2)  point group:

     e(  1 -  1) =     -1.77292  eV     1   --> B_2  D_4  S_4  
     e(  2 -  2) =     -1.67934  eV     1   --> A_1  D_1  S_1  
     e(  3 -  3) =      2.86633  eV     1   --> B_2  D_4  S_4  
     e(  4 -  4) =      3.25783  eV     1   --> B_1  D_3  S_3  
     e(  5 -  5) =      6.81352  eV     1   --> A_1  D_1  S_1  
     e(  6 -  6) =      7.30479  eV     1   --> B_2  D_4  S_4  
     e(  7 -  7) =     15.39031  eV     1   --> A_2  D_2  S_2  
     e(  8 -  8) =     15.58926  eV     1   --> A_1  D_1  S_1  

 **************************************************************************

 **************************************************************************

                    xk=(   0.06187,   0.70711,   0.06187  )

     Band symmetry, C_2v (mm2)  point group:

     e(  1 -  1) =     -1.77615  eV     1   --> B_2  D_4  S_4  
     e(  2 -  2) =     -1.67269  eV     1   --> A_1  D_1  S_1  
     e(  3 -  3) =      2.83681  eV     1   --> B_2  D_4  S_4  
     e(  4 -  4) =      3.26271  eV     1   --> B_1  D_3  S_3  
     e(  5 -  5) =      6.81912  eV     1   --> A_1  D_1  S_1  
     e(  6 -  6) =      7.35531  eV     1   --> B_2  D_4  S_4  
     e(  7 -  7) =     15.34593  eV     1   --> A_2  D_2  S_2  
     e(  8 -  8) =     15.55951  eV     1   --> A_1  D_1  S_1  

 **************************************************************************

 **************************************************************************

                    xk=(   0.06482,   0.70711,   0.06482  )

     Band symmetry, C_2v (mm2)  point group:

     e(  1 -  1) =     -1.77960  eV     1   --> B_2  D_4  S_4  
     e(  2 -  2) =     -1.66572  eV     1   --> A_1  D_1  S_1  
     e(  3 -  3) =      2.80674  eV     1   --> B_2  D_4  S_4  
     e(  4 -  4) =      3.26782  eV     1   --> B_1  D_3  S_3  
     e(  5 -  5) =      6.82500  eV     1   --> A_1  D_1  S_1  
     e(  6 -  6) =      7.40746  eV     1   --> B_2  D_4  S_4  
     e(  7 -  7) =     15.30068  eV     1   --> A_2  D_2  S_2  
     e(  8 -  8) =     15.52888  eV     1   --> A_1  D_1  S_1  

 **************************************************************************

 **************************************************************************

                    xk=(   0.06776,   0.70711,   0.06776  )

     Band symmetry, C_2v (mm2)  point group:

     e(  1 -  1) =     -1.78327  eV     1   --> B_2  D_4  S_4  
     e(  2 -  2) =     -1.65843  eV     1   --> A_1  D_1  S_1  
     e(  3 -  3) =      2.77622  eV     1   --> B_2  D_4  S_4  
     e(  4 -  4) =      3.27316  eV     1   --> B_1  D_3  S_3  
     e(  5 -  5) =      6.83115  eV     1   --> A_1  D_1  S_1  
     e(  6 -  6) =      7.46114  eV     1   --> B_2  D_4  S_4  
     e(  7 -  7) =     15.25463  eV     1   --> A_2  D_2  S_2  
     e(  8 -  8) =     15.49743  eV     1   --> A_1  D_1  S_1  

 **************************************************************************

 **************************************************************************

                    xk=(   0.07071,   0.70711,   0.07071  )

     Band symmetry, C_2v (mm2)  point group:

     e(  1 -  1) =     -1.78717  eV     1   --> B_2  D_4  S_4  
     e(  2 -  2) =     -1.65082  eV     1   --> A_1  D_1  S_1  
     e(  3 -  3) =      2.74531  eV     1   --> B_2  D_4  S_4  
     e(  4 -  4) =      3.27874  eV     1   --> B_1  D_3  S_3  
     e(  5 -  5) =      6.83756  eV     1   --> A_1  D_1  S_1  
     e(  6 -  6) =      7.51631  eV     1   --> B_2  D_4  S_4  
     e(  7 -  7) =     15.20787  eV     1   --> A_2  D_2  S_2  
     e(  8 -  8) =     15.46521  eV     1   --> A_1  D_1  S_1  

 **************************************************************************

 **************************************************************************

                    xk=(   0.07366,   0.70711,   0.07366  )

     Band symmetry, C_2v (mm2)  point group:

     e(  1 -  1) =     -1.79131  eV     1   --> B_2  D_4  S_4  
     e(  2 -  2) =     -1.64288  eV     1   --> A_1  D_1  S_1  
     e(  3 -  3) =      2.71408  eV     1   --> B_2  D_4  S_4  
     e(  4 -  4) =      3.28456  eV     1   --> B_1  D_3  S_3  
     e(  5 -  5) =      6.84424  eV     1   --> A_1  D_1  S_1  
     e(  6 -  6) =      7.57289  eV     1   --> B_2  D_4  S_4  
     e(  7 -  7) =     15.16045  eV     1   --> A_2  D_2  S_2  
     e(  8 -  8) =     15.43225  eV     1   --> A_1  D_1  S_1  

 **************************************************************************

 **************************************************************************

                    xk=(   0.07660,   0.70711,   0.07660  )

     Band symmetry, C_2v (mm2)  point group:

     e(  1 -  1) =     -1.79570  eV     1   --> B_2  D_4  S_4  
     e(  2 -  2) =     -1.63462  eV     1   --> A_1  D_1  S_1  
     e(  3 -  3) =      2.68261  eV     1   --> B_2  D_4  S_4  
     e(  4 -  4) =      3.29060  eV     1   --> B_1  D_3  S_3  
     e(  5 -  5) =      6.85119  eV     1   --> A_1  D_1  S_1  
     e(  6 -  6) =      7.63081  eV     1   --> B_2  D_4  S_4  
     e(  7 -  7) =     15.11244  eV     1   --> A_2  D_2  S_2  
     e(  8 -  8) =     15.39862  eV     1   --> A_1  D_1  S_1  

 **************************************************************************

 **************************************************************************

                    xk=(   0.07955,   0.70711,   0.07955  )

     Band symmetry, C_2v (mm2)  point group:

     e(  1 -  1) =     -1.80034  eV     1   --> B_2  D_4  S_4  
     e(  2 -  2) =     -1.62603  eV     1   --> A_1  D_1  S_1  
     e(  3 -  3) =      2.65096  eV     1   --> B_2  D_4  S_4  
     e(  4 -  4) =      3.29688  eV     1   --> B_1  D_3  S_3  
     e(  5 -  5) =      6.85841  eV     1   --> A_1  D_1  S_1  
     e(  6 -  6) =      7.69003  eV     1   --> B_2  D_4  S_4  
     e(  7 -  7) =     15.06390  eV     1   --> A_2  D_2  S_2  
     e(  8 -  8) =     15.36435  eV     1   --> A_1  D_1  S_1  

 **************************************************************************

 **************************************************************************

                    xk=(   0.08250,   0.70711,   0.08250  )

     Band symmetry, C_2v (mm2)  point group:

     e(  1 -  1) =     -1.80525  eV     1   --> B_2  D_4  S_4  
     e(  2 -  2) =     -1.61712  eV     1   --> A_1  D_1  S_1  
     e(  3 -  3) =      2.61920  eV     1   --> B_2  D_4  S_4  
     e(  4 -  4) =      3.30339  eV     1   --> B_1  D_3  S_3  
     e(  5 -  5) =      6.86589  eV     1   --> A_1  D_1  S_1  
     e(  6 -  6) =      7.75049  eV     1   --> B_2  D_4  S_4  
     e(  7 -  7) =     15.01488  eV     1   --> A_2  D_2  S_2  
     e(  8 -  8) =     15.32948  eV     1   --> A_1  D_1  S_1  

 **************************************************************************

 **************************************************************************

                    xk=(   0.08544,   0.70711,   0.08544  )

     Band symmetry, C_2v (mm2)  point group:

     e(  1 -  1) =     -1.81044  eV     1   --> B_2  D_4  S_4  
     e(  2 -  2) =     -1.60789  eV     1   --> A_1  D_1  S_1  
     e(  3 -  3) =      2.58738  eV     1   --> B_2  D_4  S_4  
     e(  4 -  4) =      3.31013  eV     1   --> B_1  D_3  S_3  
     e(  5 -  5) =      6.87364  eV     1   --> A_1  D_1  S_1  
     e(  6 -  6) =      7.81212  eV     1   --> B_2  D_4  S_4  
     e(  7 -  7) =     14.96544  eV     1   --> A_2  D_2  S_2  
     e(  8 -  8) =     15.29405  eV     1   --> A_1  D_1  S_1  

 **************************************************************************

 **************************************************************************

                    xk=(   0.08839,   0.70711,   0.08839  )

     Band symmetry, C_2v (mm2)  point group:

     e(  1 -  1) =     -1.81591  eV     1   --> B_2  D_4  S_4  
     e(  2 -  2) =     -1.59834  eV     1   --> A_1  D_1  S_1  
     e(  3 -  3) =      2.55557  eV     1   --> B_2  D_4  S_4  
     e(  4 -  4) =      3.31710  eV     1   --> B_1  D_3  S_3  
     e(  5 -  5) =      6.88166  eV     1   --> A_1  D_1  S_1  
     e(  6 -  6) =      7.87490  eV     1   --> B_2  D_4  S_4  
     e(  7 -  7) =     14.91562  eV     1   --> A_2  D_2  S_2  
     e(  8 -  8) =     15.25811  eV     1   --> A_1  D_1  S_1  

 **************************************************************************

 **************************************************************************

                    xk=(   0.09133,   0.70711,   0.09133  )

     Band symmetry, C_2v (mm2)  point group:

     e(  1 -  1) =     -1.82167  eV     1   --> B_2  D_4  S_4  
     e(  2 -  2) =     -1.58846  eV     1   --> A_1  D_1  S_1  
     e(  3 -  3) =      2.52382  eV     1   --> B_2  D_4  S_4  
     e(  4 -  4) =      3.32430  eV     1   --> B_1  D_3  S_3  
     e(  5 -  5) =      6.88994  eV     1   --> A_1  D_1  S_1  
     e(  6 -  6) =      7.93876  eV     1   --> B_2  D_4  S_4  
     e(  7 -  7) =     14.86545  eV     1   --> A_2  D_2  S_2  
     e(  8 -  8) =     15.22168  eV     1   --> A_1  D_1  S_1  

 **************************************************************************

 **************************************************************************

                    xk=(   0.09428,   0.70711,   0.09428  )

     Band symmetry, C_2v (mm2)  point group:

     e(  1 -  1) =     -1.82774  eV     1   --> B_2  D_4  S_4  
     e(  2 -  2) =     -1.57826  eV     1   --> A_1  D_1  S_1  
     e(  3 -  3) =      2.49218  eV     1   --> B_2  D_4  S_4  
     e(  4 -  4) =      3.33173  eV     1   --> B_1  D_3  S_3  
     e(  5 -  5) =      6.89848  eV     1   --> A_1  D_1  S_1  
     e(  6 -  6) =      8.00366  eV     1   --> B_2  D_4  S_4  
     e(  7 -  7) =     14.81499  eV     1   --> A_2  D_2  S_2  
     e(  8 -  8) =     15.18481  eV     1   --> A_1  D_1  S_1  

 **************************************************************************

 **************************************************************************

                    xk=(   0.09723,   0.70711,   0.09723  )

     Band symmetry, C_2v (mm2)  point group:

     e(  1 -  1) =     -1.83412  eV     1   --> B_2  D_4  S_4  
     e(  2 -  2) =     -1.56774  eV     1   --> A_1  D_1  S_1  
     e(  3 -  3) =      2.46070  eV     1   --> B_2  D_4  S_4  
     e(  4 -  4) =      3.33938  eV     1   --> B_1  D_3  S_3  
     e(  5 -  5) =      6.90729  eV     1   --> A_1  D_1  S_1  
     e(  6 -  6) =      8.06956  eV     1   --> B_2  D_4  S_4  
     e(  7 -  7) =     14.76426  eV     1   --> A_2  D_2  S_2  
     e(  8 -  8) =     15.14751  eV     1   --> A_1  D_1  S_1  

 **************************************************************************

 **************************************************************************

                    xk=(   0.10017,   0.70711,   0.10017  )

     Band symmetry, C_2v (mm2)  point group:

     e(  1 -  1) =     -1.84083  eV     1   --> B_2  D_4  S_4  
     e(  2 -  2) =     -1.55689  eV     1   --> A_1  D_1  S_1  
     e(  3 -  3) =      2.42943  eV     1   --> B_2  D_4  S_4  
     e(  4 -  4) =      3.34727  eV     1   --> B_1  D_3  S_3  
     e(  5 -  5) =      6.91635  eV     1   --> A_1  D_1  S_1  
     e(  6 -  6) =      8.13642  eV     1   --> B_2  D_4  S_4  
     e(  7 -  7) =     14.71330  eV     1   --> A_2  D_2  S_2  
     e(  8 -  8) =     15.10983  eV     1   --> A_1  D_1  S_1  

 **************************************************************************

 **************************************************************************

                    xk=(   0.10312,   0.70711,   0.10312  )

     Band symmetry, C_2v (mm2)  point group:

     e(  1 -  1) =     -1.84787  eV     1   --> B_2  D_4  S_4  
     e(  2 -  2) =     -1.54573  eV     1   --> A_1  D_1  S_1  
     e(  3 -  3) =      2.39842  eV     1   --> B_2  D_4  S_4  
     e(  4 -  4) =      3.35538  eV     1   --> B_1  D_3  S_3  
     e(  5 -  5) =      6.92568  eV     1   --> A_1  D_1  S_1  
     e(  6 -  6) =      8.20421  eV     1   --> B_2  D_4  S_4  
     e(  7 -  7) =     14.66214  eV     1   --> A_2  D_2  S_2  
     e(  8 -  8) =     15.07180  eV     1   --> A_1  D_1  S_1  

 **************************************************************************

 **************************************************************************

                    xk=(   0.10607,   0.70711,   0.10607  )

     Band symmetry, C_2v (mm2)  point group:

     e(  1 -  1) =     -1.85526  eV     1   --> B_2  D_4  S_4  
     e(  2 -  2) =     -1.53424  eV     1   --> A_1  D_1  S_1  
     e(  3 -  3) =      2.36772  eV     1   --> B_2  D_4  S_4  
     e(  4 -  4) =      3.36371  eV     1   --> B_1  D_3  S_3  
     e(  5 -  5) =      6.93527  eV     1   --> A_1  D_1  S_1  
     e(  6 -  6) =      8.27288  eV     1   --> B_2  D_4  S_4  
     e(  7 -  7) =     14.61081  eV     1   --> A_2  D_2  S_2  
     e(  8 -  8) =     15.03344  eV     1   --> A_1  D_1  S_1  

 **************************************************************************

 **************************************************************************

                    xk=(   0.10901,   0.70711,   0.10901  )

     Band symmetry, C_2v (mm2)  point group:

     e(  1 -  1) =     -1.86300  eV     1   --> B_2  D_4  S_4  
     e(  2 -  2) =     -1.52242  eV     1   --> A_1  D_1  S_1  
     e(  3 -  3) =      2.33735  eV     1   --> B_2  D_4  S_4  
     e(  4 -  4) =      3.37227  eV     1   --> B_1  D_3  S_3  
     e(  5 -  5) =      6.94512  eV     1   --> A_1  D_1  S_1  
     e(  6 -  6) =      8.34241  eV     1   --> B_2  D_4  S_4  
     e(  7 -  7) =     14.55933  eV     1   --> A_2  D_2  S_2  
     e(  8 -  8) =     14.99477  eV     1   --> A_1  D_1  S_1  

 **************************************************************************

 **************************************************************************

                    xk=(   0.11196,   0.70711,   0.11196  )

     Band symmetry, C_2v (mm2)  point group:

     e(  1 -  1) =     -1.87111  eV     1   --> B_2  D_4  S_4  
     e(  2 -  2) =     -1.51029  eV     1   --> A_1  D_1  S_1  
     e(  3 -  3) =      2.30737  eV     1   --> B_2  D_4  S_4  
     e(  4 -  4) =      3.38106  eV     1   --> B_1  D_3  S_3  
     e(  5 -  5) =      6.95522  eV     1   --> A_1  D_1  S_1  
     e(  6 -  6) =      8.41276  eV     1   --> B_2  D_4  S_4  
     e(  7 -  7) =     14.50773  eV     1   --> A_2  D_2  S_2  
     e(  8 -  8) =     14.95583  eV     1   --> A_1  D_1  S_1  

 **************************************************************************

 **************************************************************************

                    xk=(   0.11490,   0.70711,   0.11490  )

     Band symmetry, C_2v (mm2)  point group:

     e(  1 -  1) =     -1.87960  eV     1   --> B_2  D_4  S_4  
     e(  2 -  2) =     -1.49783  eV     1   --> A_1  D_1  S_1  
     e(  3 -  3) =      2.27782  eV     1   --> B_2  D_4  S_4  
     e(  4 -  4) =      3.39007  eV     1   --> B_1  D_3  S_3  
     e(  5 -  5) =      6.96559  eV     1   --> A_1  D_1  S_1  
     e(  6 -  6) =      8.48390  eV     1   --> B_2  D_4  S_4  
     e(  7 -  7) =     14.45603  eV     1   --> A_2  D_2  S_2  
     e(  8 -  8) =     14.91663  eV     1   --> A_1  D_1  S_1  

 **************************************************************************

 **************************************************************************

                    xk=(   0.11785,   0.70711,   0.11785  )

     Band symmetry, C_2v (mm2)  point group:

     e(  1 -  1) =     -1.88847  eV     1   --> B_2  D_4  S_4  
     e(  2 -  2) =     -1.48505  eV     1   --> A_1  D_1  S_1  
     e(  3 -  3) =      2.24872  eV     1   --> B_2  D_4  S_4  
     e(  4 -  4) =      3.39929  eV     1   --> B_1  D_3  S_3  
     e(  5 -  5) =      6.97621  eV     1   --> A_1  D_1  S_1  
     e(  6 -  6) =      8.55581  eV     1   --> B_2  D_4  S_4  
     e(  7 -  7) =     14.40425  eV     1   --> A_2  D_2  S_2  
     e(  8 -  8) =     14.87721  eV     1   --> A_1  D_1  S_1  

 **************************************************************************

 **************************************************************************

                    xk=(   0.12080,   0.70711,   0.12080  )

     Band symmetry, C_2v (mm2)  point group:

     e(  1 -  1) =     -1.89773  eV     1   --> B_2  D_4  S_4  
     e(  2 -  2) =     -1.47195  eV     1   --> A_1  D_1  S_1  
     e(  3 -  3) =      2.22011  eV     1   --> B_2  D_4  S_4  
     e(  4 -  4) =      3.40875  eV     1   --> B_1  D_3  S_3  
     e(  5 -  5) =      6.98708  eV     1   --> A_1  D_1  S_1  
     e(  6 -  6) =      8.62845  eV     1   --> B_2  D_4  S_4  
     e(  7 -  7) =     14.35242  eV     1   --> A_2  D_2  S_2  
     e(  8 -  8) =     14.83757  eV     1   --> A_1  D_1  S_1  

 **************************************************************************

 **************************************************************************

                    xk=(   0.12374,   0.70711,   0.12374  )

     Band symmetry, C_2v (mm2)  point group:

     e(  1 -  1) =     -1.90740  eV     1   --> B_2  D_4  S_4  
     e(  2 -  2) =     -1.45853  eV     1   --> A_1  D_1  S_1  
     e(  3 -  3) =      2.19203  eV     1   --> B_2  D_4  S_4  
     e(  4 -  4) =      3.41842  eV     1   --> B_1  D_3  S_3  
     e(  5 -  5) =      6.99821  eV     1   --> A_1  D_1  S_1  
     e(  6 -  6) =      8.70180  eV     1   --> B_2  D_4  S_4  
     e(  7 -  7) =     14.30054  eV     1   --> A_2  D_2  S_2  
     e(  8 -  8) =     14.79775  eV     1   --> A_1  D_1  S_1  

 **************************************************************************

 **************************************************************************

                    xk=(   0.12669,   0.70711,   0.12669  )

     Band symmetry, C_2v (mm2)  point group:

     e(  1 -  1) =     -1.91748  eV     1   --> B_2  D_4  S_4  
     e(  2 -  2) =     -1.44479  eV     1   --> A_1  D_1  S_1  
     e(  3 -  3) =      2.16451  eV     1   --> B_2  D_4  S_4  
     e(  4 -  4) =      3.42831  eV     1   --> B_1  D_3  S_3  
     e(  5 -  5) =      7.00959  eV     1   --> A_1  D_1  S_1  
     e(  6 -  6) =      8.77584  eV     1   --> B_2  D_4  S_4  
     e(  7 -  7) =     14.24865  eV     1   --> A_2  D_2  S_2  
     e(  8 -  8) =     14.75776  eV     1   --> A_1  D_1  S_1  

 **************************************************************************

 **************************************************************************

                    xk=(   0.12964,   0.70711,   0.12964  )

     Band symmetry, C_2v (mm2)  point group:

     e(  1 -  1) =     -1.92799  eV     1   --> B_2  D_4  S_4  
     e(  2 -  2) =     -1.43072  eV     1   --> A_1  D_1  S_1  
     e(  3 -  3) =      2.13758  eV     1   --> B_2  D_4  S_4  
     e(  4 -  4) =      3.43841  eV     1   --> B_1  D_3  S_3  
     e(  5 -  5) =      7.02123  eV     1   --> A_1  D_1  S_1  
     e(  6 -  6) =      8.85053  eV     1   --> B_2  D_4  S_4  
     e(  7 -  7) =     14.19674  eV     1   --> A_2  D_2  S_2  
     e(  8 -  8) =     14.71763  eV     1   --> A_1  D_1  S_1  

 **************************************************************************

 **************************************************************************

                    xk=(   0.13258,   0.70711,   0.13258  )

     Band symmetry, C_2v (mm2)  point group:

     e(  1 -  1) =     -1.93892  eV     1   --> B_2  D_4  S_4  
     e(  2 -  2) =     -1.41634  eV     1   --> A_1  D_1  S_1  
     e(  3 -  3) =      2.11126  eV     1   --> B_2  D_4  S_4  
     e(  4 -  4) =      3.44874  eV     1   --> B_1  D_3  S_3  
     e(  5 -  5) =      7.03311  eV     1   --> A_1  D_1  S_1  
     e(  6 -  6) =      8.92587  eV     1   --> B_2  D_4  S_4  
     e(  7 -  7) =     14.14485  eV     1   --> A_2  D_2  S_2  
     e(  8 -  8) =     14.67736  eV     1   --> A_1  D_1  S_1  

 **************************************************************************

 **************************************************************************

                    xk=(   0.13553,   0.70711,   0.13553  )

     Band symmetry, C_2v (mm2)  point group:

     e(  1 -  1) =     -1.95030  eV     1   --> B_2  D_4  S_4  
     e(  2 -  2) =     -1.40163  eV     1   --> A_1  D_1  S_1  
     e(  3 -  3) =      2.08558  eV     1   --> B_2  D_4  S_4  
     e(  4 -  4) =      3.45928  eV     1   --> B_1  D_3  S_3  
     e(  5 -  5) =      7.04524  eV     1   --> A_1  D_1  S_1  
[...]
     e(  8 -  8) =     11.03396  eV     1   --> A              

 **************************************************************************

 **************************************************************************

                    xk=(   0.35355,   0.70121,   0.00589  )

     Band symmetry, C_2  (2)    point group:

     e(  1 -  1) =     -1.64345  eV     1   --> A              
     e(  2 -  2) =     -1.53675  eV     1   --> B              
     e(  3 -  3) =      2.20559  eV     1   --> B              
     e(  4 -  4) =      2.28522  eV     1   --> A              
     e(  5 -  5) =     10.23968  eV     1   --> A              
     e(  6 -  6) =     10.31792  eV     1   --> B              
     e(  7 -  7) =     10.88832  eV     1   --> B              
     e(  8 -  8) =     10.97691  eV     1   --> A              

 **************************************************************************

 **************************************************************************

                    xk=(   0.35355,   0.70711,   0.00000  )

     zone border point and non-symmorphic group 
     symmetry decomposition not available

 **************************************************************************

 **************************************************************************

                    xk=(   0.34766,   0.70711,   0.00000  )

     zone border point and non-symmorphic group 
     symmetry decomposition not available

 **************************************************************************

 **************************************************************************

                    xk=(   0.34177,   0.70711,   0.00000  )

     zone border point and non-symmorphic group 
     symmetry decomposition not available

 **************************************************************************

 **************************************************************************

                    xk=(   0.33588,   0.70711,   0.00000  )

     zone border point and non-symmorphic group 
     symmetry decomposition not available

 **************************************************************************

 **************************************************************************

                    xk=(   0.32998,   0.70711,   0.00000  )

     zone border point and non-symmorphic group 
     symmetry decomposition not available

 **************************************************************************

 **************************************************************************

                    xk=(   0.32409,   0.70711,   0.00000  )

     zone border point and non-symmorphic group 
     symmetry decomposition not available

 **************************************************************************

 **************************************************************************

                    xk=(   0.31820,   0.70711,   0.00000  )

     zone border point and non-symmorphic group 
     symmetry decomposition not available

 **************************************************************************

 **************************************************************************

                    xk=(   0.31231,   0.70711,   0.00000  )

     zone border point and non-symmorphic group 
     symmetry decomposition not available

 **************************************************************************

 **************************************************************************

                    xk=(   0.30641,   0.70711,   0.00000  )

     zone border point and non-symmorphic group 
     symmetry decomposition not available

 **************************************************************************

 **************************************************************************

                    xk=(   0.30052,   0.70711,   0.00000  )

     zone border point and non-symmorphic group 
     symmetry decomposition not available

 **************************************************************************

 **************************************************************************

                    xk=(   0.29463,   0.70711,  -0.00000  )

     zone border point and non-symmorphic group 
     symmetry decomposition not available

 **************************************************************************

 **************************************************************************

                    xk=(   0.28874,   0.70711,   0.00000  )

     zone border point and non-symmorphic group 
     symmetry decomposition not available

 **************************************************************************

 **************************************************************************

                    xk=(   0.28284,   0.70711,   0.00000  )

     zone border point and non-symmorphic group 
     symmetry decomposition not available

 **************************************************************************

 **************************************************************************

                    xk=(   0.27695,   0.70711,   0.00000  )

     zone border point and non-symmorphic group 
     symmetry decomposition not available

 **************************************************************************

 **************************************************************************

                    xk=(   0.27106,   0.70711,   0.00000  )

     zone border point and non-symmorphic group 
     symmetry decomposition not available

 **************************************************************************

 **************************************************************************

                    xk=(   0.26517,   0.70711,   0.00000  )

     zone border point and non-symmorphic group 
     symmetry decomposition not available

 **************************************************************************

 **************************************************************************

                    xk=(   0.25927,   0.70711,  -0.00000  )

     zone border point and non-symmorphic group 
     symmetry decomposition not available

 **************************************************************************

 **************************************************************************

                    xk=(   0.25338,   0.70711,   0.00000  )

     zone border point and non-symmorphic group 
     symmetry decomposition not available

 **************************************************************************

 **************************************************************************

                    xk=(   0.24749,   0.70711,   0.00000  )

     zone border point and non-symmorphic group 
     symmetry decomposition not available

 **************************************************************************

 **************************************************************************

                    xk=(   0.24159,   0.70711,  -0.00000  )

     zone border point and non-symmorphic group 
     symmetry decomposition not available

 **************************************************************************

 **************************************************************************

                    xk=(   0.23570,   0.70711,   0.00000  )

     zone border point and non-symmorphic group 
     symmetry decomposition not available

 **************************************************************************

 **************************************************************************

                    xk=(   0.22981,   0.70711,   0.00000  )

     zone border point and non-symmorphic group 
     symmetry decomposition not available

 **************************************************************************

 **************************************************************************

                    xk=(   0.22392,   0.70711,   0.00000  )

     zone border point and non-symmorphic group 
     symmetry decomposition not available

 **************************************************************************

 **************************************************************************

                    xk=(   0.21802,   0.70711,   0.00000  )

     zone border point and non-symmorphic group 
     symmetry decomposition not available

 **************************************************************************

 **************************************************************************

                    xk=(   0.21213,   0.70711,   0.00000  )

     zone border point and non-symmorphic group 
     symmetry decomposition not available

 **************************************************************************

 **************************************************************************

                    xk=(   0.20624,   0.70711,  -0.00000  )

     zone border point and non-symmorphic group 
     symmetry decomposition not available

 **************************************************************************

 **************************************************************************

                    xk=(   0.20035,   0.70711,   0.00000  )

     zone border point and non-symmorphic group 
     symmetry decomposition not available

 **************************************************************************

 **************************************************************************

                    xk=(   0.19445,   0.70711,   0.00000  )

     zone border point and non-symmorphic group 
     symmetry decomposition not available

 **************************************************************************

 **************************************************************************

                    xk=(   0.18856,   0.70711,   0.00000  )

     zone border point and non-symmorphic group 
     symmetry decomposition not available

 **************************************************************************

 **************************************************************************

                    xk=(   0.18267,   0.70711,   0.00000  )

     zone border point and non-symmorphic group 
     symmetry decomposition not available

 **************************************************************************

 **************************************************************************

                    xk=(   0.17678,   0.70711,   0.00000  )

     zone border point and non-symmorphic group 
     symmetry decomposition not available

 **************************************************************************

 **************************************************************************

                    xk=(   0.17088,   0.70711,   0.00000  )

     zone border point and non-symmorphic group 
     symmetry decomposition not available

 **************************************************************************

 **************************************************************************

                    xk=(   0.16499,   0.70711,   0.00000  )

     zone border point and non-symmorphic group 
     symmetry decomposition not available

 **************************************************************************

 **************************************************************************

                    xk=(   0.15910,   0.70711,   0.00000  )

     zone border point and non-symmorphic group 
     symmetry decomposition not available

 **************************************************************************

 **************************************************************************

                    xk=(   0.15321,   0.70711,  -0.00000  )

     zone border point and non-symmorphic group 
     symmetry decomposition not available

 **************************************************************************

 **************************************************************************

                    xk=(   0.14731,   0.70711,   0.00000  )

     zone border point and non-symmorphic group 
     symmetry decomposition not available

 **************************************************************************

 **************************************************************************

                    xk=(   0.14142,   0.70711,   0.00000  )

     zone border point and non-symmorphic group 
     symmetry decomposition not available

 **************************************************************************

 **************************************************************************

                    xk=(   0.13553,   0.70711,   0.00000  )

     zone border point and non-symmorphic group 
     symmetry decomposition not available

 **************************************************************************

 **************************************************************************

                    xk=(   0.12964,   0.70711,   0.00000  )

     zone border point and non-symmorphic group 
     symmetry decomposition not available

 **************************************************************************

 **************************************************************************

                    xk=(   0.12374,   0.70711,  -0.00000  )

     zone border point and non-symmorphic group 
     symmetry decomposition not available

 **************************************************************************

 **************************************************************************

                    xk=(   0.11785,   0.70711,   0.00000  )

     zone border point and non-symmorphic group 
     symmetry decomposition not available

 **************************************************************************

 **************************************************************************

                    xk=(   0.11196,   0.70711,   0.00000  )

     zone border point and non-symmorphic group 
     symmetry decomposition not available

 **************************************************************************

 **************************************************************************

                    xk=(   0.10607,   0.70711,   0.00000  )

     zone border point and non-symmorphic group 
     symmetry decomposition not available

 **************************************************************************

 **************************************************************************

                    xk=(   0.10017,   0.70711,   0.00000  )

     zone border point and non-symmorphic group 
     symmetry decomposition not available

 **************************************************************************

 **************************************************************************

                    xk=(   0.09428,   0.70711,   0.00000  )

     zone border point and non-symmorphic group 
     symmetry decomposition not available

 **************************************************************************

 **************************************************************************

                    xk=(   0.08839,   0.70711,   0.00000  )

     zone border point and non-symmorphic group 
     symmetry decomposition not available

 **************************************************************************

 **************************************************************************

                    xk=(   0.08250,   0.70711,   0.00000  )

     zone border point and non-symmorphic group 
     symmetry decomposition not available

 **************************************************************************

 **************************************************************************

                    xk=(   0.07660,   0.70711,   0.00000  )

     zone border point and non-symmorphic group 
     symmetry decomposition not available

 **************************************************************************

 **************************************************************************

                    xk=(   0.07071,   0.70711,  -0.00000  )

     zone border point and non-symmorphic group 
     symmetry decomposition not available

 **************************************************************************

 **************************************************************************

                    xk=(   0.06482,   0.70711,  -0.00000  )

     zone border point and non-symmorphic group 
     symmetry decomposition not available

 **************************************************************************

 **************************************************************************

                    xk=(   0.05893,   0.70711,   0.00000  )

     zone border point and non-symmorphic group 
     symmetry decomposition not available

 **************************************************************************

 **************************************************************************

                    xk=(   0.05303,   0.70711,   0.00000  )

     zone border point and non-symmorphic group 
     symmetry decomposition not available

 **************************************************************************

 **************************************************************************

                    xk=(   0.04714,   0.70711,   0.00000  )

     zone border point and non-symmorphic group 
     symmetry decomposition not available

 **************************************************************************

 **************************************************************************

                    xk=(   0.04125,   0.70711,   0.00000  )

     zone border point and non-symmorphic group 
     symmetry decomposition not available

 **************************************************************************

 **************************************************************************

                    xk=(   0.03536,   0.70711,   0.00000  )

     zone border point and non-symmorphic group 
     symmetry decomposition not available

 **************************************************************************

 **************************************************************************

                    xk=(   0.02946,   0.70711,  -0.00000  )

     zone border point and non-symmorphic group 
     symmetry decomposition not available

 **************************************************************************

 **************************************************************************

                    xk=(   0.02357,   0.70711,   0.00000  )

     zone border point and non-symmorphic group 
     symmetry decomposition not available

 **************************************************************************

 **************************************************************************

                    xk=(   0.01768,   0.70711,   0.00000  )

     zone border point and non-symmorphic group 
     symmetry decomposition not available

 **************************************************************************

 **************************************************************************

                    xk=(   0.01179,   0.70711,   0.00000  )

     zone border point and non-symmorphic group 
     symmetry decomposition not available

 **************************************************************************

 **************************************************************************

                    xk=(   0.00589,   0.70711,   0.00000  )

     zone border point and non-symmorphic group 
     symmetry decomposition not available

 **************************************************************************

 **************************************************************************

                    xk=(   0.00000,   0.70711,   0.00000  )

     zone border point and non-symmorphic group 
     symmetry decomposition not available

 **************************************************************************
 
     BANDS        :    15.02s CPU        16.47s WALL

 
   This run was terminated on:  16:25:15   8Apr2020            

=------------------------------------------------------------------------------=
   JOB DONE.
=------------------------------------------------------------------------------=
