mpijob CMD    : mpirun -f /tmp/mpiexec.params.k050801.101260
mpijob PARAMS : -d /home/k0508/k050801/qeirreps/ver_5/qeirreps/reference/Si_nonsoc
        r1i6n18 24 omplace -nt 1 "/home/k0508/k050801/qe-6.6/bin/bands.x"

SGI MPT Placement option
--------------------------
omplace -nt 1

Node   MPI
------------
r1i6n18 24


     Program BANDS v.6.6 starts on 29Nov2020 at 17:56:44 

     This program is part of the open-source Quantum ESPRESSO suite
     for quantum simulation of materials; please cite
         "P. Giannozzi et al., J. Phys.:Condens. Matter 21 395502 (2009);
         "P. Giannozzi et al., J. Phys.:Condens. Matter 29 465901 (2017);
          URL http://www.quantum-espresso.org", 
     in publications or presentations arising from this work. More details at
     http://www.quantum-espresso.org/quote

     Parallel version (MPI), running on    24 processors

     MPI processes distributed on     1 nodes
     R & G space division:  proc/nbgrp/npool/nimage =      24
     Fft bands division:     nmany     =       1

     Reading xml data from directory:

     /work/k0508/k050801/Si_ns/band/Si.save/

     IMPORTANT: XC functional enforced from input :
     Exchange-correlation= PBE
                           (   1   4   3   4   0   0   0)
     Any further DFT definition will be discarded
     Please, verify this is what you really want

 
     Parallelization info
     --------------------
     sticks:   dense  smooth     PW     G-vecs:    dense   smooth      PW
     Min          61      61     17                 1553     1553     238
     Max          62      62     18                 1556     1556     242
     Sum        1483    1483    421                37309    37309    5769
 
     Reading collected, re-writing distributed wavefunctions
     high-symmetry point:  0.0000 0.0000 0.0000   x coordinate   0.0000
     high-symmetry point:  0.0000 0.7071 0.0000   x coordinate   0.7071
     high-symmetry point:  0.1768 0.7071 0.1768   x coordinate   0.9571
     high-symmetry point:  0.5303 0.5303 0.0000   x coordinate   0.9571
     high-symmetry point:  0.0000 0.0000 0.0000   x coordinate   1.7071
     high-symmetry point:  0.3536 0.3536 0.3536   x coordinate   2.3195
     high-symmetry point:  0.3536 0.7071 0.0000   x coordinate   2.8195
     high-symmetry point:  0.0000 0.7071 0.0000   x coordinate   3.1730

     Plottable bands (eV) written to file Si.band.gnu
     Bands written to file Si.band

 **************************************************************************

                    xk=(   0.00000,   0.00000,   0.00000  )

     point group O_h (m-3m) 
     there are 10 classes
     the character table:

       E     8C3   3C2   6C4   6C2'  i     8S6   3s_h  6S4   6s_d 
A_1g   1.00  1.00  1.00  1.00  1.00  1.00  1.00  1.00  1.00  1.00
A_2g   1.00  1.00  1.00 -1.00 -1.00  1.00  1.00  1.00 -1.00 -1.00
E_g    2.00 -1.00  2.00  0.00  0.00  2.00 -1.00  2.00  0.00  0.00
T_1g   3.00  0.00 -1.00  1.00 -1.00  3.00  0.00 -1.00  1.00 -1.00
T_2g   3.00  0.00 -1.00 -1.00  1.00  3.00  0.00 -1.00 -1.00  1.00
A_1u   1.00  1.00  1.00  1.00  1.00 -1.00 -1.00 -1.00 -1.00 -1.00
A_2u   1.00  1.00  1.00 -1.00 -1.00 -1.00 -1.00 -1.00  1.00  1.00
E_u    2.00 -1.00  2.00  0.00  0.00 -2.00  1.00 -2.00  0.00  0.00
T_1u   3.00  0.00 -1.00  1.00 -1.00 -3.00  0.00  1.00 -1.00  1.00
T_2u   3.00  0.00 -1.00 -1.00  1.00 -3.00  0.00  1.00  1.00 -1.00

     the symmetry operations in each class and the name of the first element:

     E        1
                                                                 
     8C3     17   19   20   18   24   21   22   23
                                                                 
     3C2      2    4    3
                                                                 
     6C4      7    8   15   16   12   11
                                                                 
     6C2'     5    6   14   13   10    9
                                                                 
     i       25
                                                                 
     8S6     41   43   44   42   48   45   46   47
                                                                 
     3s_h    26   28   27
                                                                 
     6S4     31   32   39   40   36   35
                                                                 
     6s_d    29   30   38   37   34   33
                                                                 

     Band symmetry, O_h (m-3m)  point group:

     e(  1 -  1) =     -5.80929  eV     1   --> A_1g G_1   G_1+
     e(  2 -  4) =      6.00882  eV     3   --> T_2g G_25' G_5+
     e(  5 -  7) =      8.55553  eV     3   --> T_1u G_15  G_4-
     e(  8 -  8) =      9.10581  eV     1   --> A_2u G_2'  G_2-

 **************************************************************************

 **************************************************************************

                    xk=(   0.00000,   0.01179,   0.00000  )

     point group C_4v (4mm) 
     there are  5 classes
     the character table:

       E     2C4   C2    2s_v  2s_d 
A_1    1.00  1.00  1.00  1.00  1.00
A_2    1.00  1.00  1.00 -1.00 -1.00
B_1    1.00 -1.00  1.00  1.00 -1.00
B_2    1.00 -1.00  1.00 -1.00  1.00
E      2.00  0.00 -2.00  0.00  0.00

     the symmetry operations in each class and the name of the first element:

     E        1
                                                                 
     2C4      3    4
                                                                 
     C2       2
                                                                 
     2s_v     5    6
                                                                 
     2s_d     7    8
                                                                 

     Band symmetry, C_4v (4mm)  point group:

     e(  1 -  1) =     -5.80809  eV     1   --> A_1  G_1 D_1   
     e(  2 -  2) =      5.99997  eV     1   --> B_2  G_4 D_2'  
     e(  3 -  4) =      6.00363  eV     2   --> E    G_5 D_5   
     e(  5 -  5) =      8.55255  eV     1   --> A_1  G_1 D_1   
     e(  6 -  7) =      8.56219  eV     2   --> E    G_5 D_5   
     e(  8 -  8) =      9.11450  eV     1   --> B_2  G_4 D_2'  

 **************************************************************************

 **************************************************************************

                    xk=(   0.00000,   0.02357,   0.00000  )

     Band symmetry, C_4v (4mm)  point group:

     e(  1 -  1) =     -5.80451  eV     1   --> A_1  G_1 D_1   
     e(  2 -  2) =      5.97372  eV     1   --> B_2  G_4 D_2'  
     e(  3 -  4) =      5.98823  eV     2   --> E    G_5 D_5   
     e(  5 -  5) =      8.54367  eV     1   --> A_1  G_1 D_1   
     e(  6 -  7) =      8.58201  eV     2   --> E    G_5 D_5   
     e(  8 -  8) =      9.14023  eV     1   --> B_2  G_4 D_2'  

 **************************************************************************

 **************************************************************************

                    xk=(   0.00000,   0.03536,   0.00000  )

     Band symmetry, C_4v (4mm)  point group:

     e(  1 -  1) =     -5.79855  eV     1   --> A_1  G_1 D_1   
     e(  2 -  2) =      5.93095  eV     1   --> B_2  G_4 D_2'  
     e(  3 -  4) =      5.96310  eV     2   --> E    G_5 D_5   
     e(  5 -  5) =      8.52900  eV     1   --> A_1  G_1 D_1   
     e(  6 -  7) =      8.61450  eV     2   --> E    G_5 D_5   
     e(  8 -  8) =      9.18201  eV     1   --> B_2  G_4 D_2'  

 **************************************************************************

 **************************************************************************

                    xk=(   0.00000,   0.04714,   0.00000  )

     Band symmetry, C_4v (4mm)  point group:

     e(  1 -  1) =     -5.79019  eV     1   --> A_1  G_1 D_1   
     e(  2 -  2) =      5.87299  eV     1   --> B_2  G_4 D_2'  
     e(  3 -  4) =      5.92897  eV     2   --> E    G_5 D_5   
     e(  5 -  5) =      8.50873  eV     1   --> A_1  G_1 D_1   
     e(  6 -  7) =      8.65891  eV     2   --> E    G_5 D_5   
     e(  8 -  8) =      9.23836  eV     1   --> B_2  G_4 D_2'  

 **************************************************************************

 **************************************************************************

                    xk=(   0.00000,   0.05893,   0.00000  )

     Band symmetry, C_4v (4mm)  point group:

     e(  1 -  1) =     -5.77945  eV     1   --> A_1  G_1 D_1   
     e(  2 -  2) =      5.80141  eV     1   --> B_2  G_4 D_2'  
     e(  3 -  4) =      5.88677  eV     2   --> E    G_5 D_5   
     e(  5 -  5) =      8.48314  eV     1   --> A_1  G_1 D_1   
     e(  6 -  7) =      8.71434  eV     2   --> E    G_5 D_5   
     e(  8 -  8) =      9.30742  eV     1   --> B_2  G_4 D_2'  

 **************************************************************************

 **************************************************************************

                    xk=(   0.00000,   0.07071,   0.00000  )

     Band symmetry, C_4v (4mm)  point group:

     e(  1 -  1) =     -5.76633  eV     1   --> A_1  G_1 D_1   
     e(  2 -  2) =      5.71789  eV     1   --> B_2  G_4 D_2'  
     e(  3 -  4) =      5.83748  eV     2   --> E    G_5 D_5   
     e(  5 -  5) =      8.45253  eV     1   --> A_1  G_1 D_1   
     e(  6 -  7) =      8.77978  eV     2   --> E    G_5 D_5   
     e(  8 -  8) =      9.38716  eV     1   --> B_2  G_4 D_2'  

 **************************************************************************

 **************************************************************************

                    xk=(   0.00000,   0.08250,   0.00000  )

     Band symmetry, C_4v (4mm)  point group:

     e(  1 -  1) =     -5.75083  eV     1   --> A_1  G_1 D_1   
     e(  2 -  2) =      5.62407  eV     1   --> B_2  G_4 D_2'  
     e(  3 -  4) =      5.78212  eV     2   --> E    G_5 D_5   
     e(  5 -  5) =      8.41727  eV     1   --> A_1  G_1 D_1   
     e(  6 -  7) =      8.85421  eV     2   --> E    G_5 D_5   
     e(  8 -  8) =      9.47544  eV     1   --> B_2  G_4 D_2'  

 **************************************************************************

 **************************************************************************

                    xk=(   0.00000,   0.09428,   0.00000  )

     Band symmetry, C_4v (4mm)  point group:

     e(  1 -  1) =     -5.73295  eV     1   --> A_1  G_1 D_1   
     e(  2 -  2) =      5.52147  eV     1   --> B_2  G_4 D_2'  
     e(  3 -  4) =      5.72166  eV     2   --> E    G_5 D_5   
     e(  5 -  5) =      8.37775  eV     1   --> A_1  G_1 D_1   
     e(  6 -  7) =      8.93665  eV     2   --> E    G_5 D_5   
     e(  8 -  8) =      9.57009  eV     1   --> B_2  G_4 D_2'  

 **************************************************************************

 **************************************************************************

                    xk=(   0.00000,   0.10607,   0.00000  )

     Band symmetry, C_4v (4mm)  point group:

     e(  1 -  1) =     -5.71270  eV     1   --> A_1  G_1 D_1   
     e(  2 -  2) =      5.41144  eV     1   --> B_2  G_4 D_2'  
     e(  3 -  4) =      5.65700  eV     2   --> E    G_5 D_5   
     e(  5 -  5) =      8.33438  eV     1   --> A_1  G_1 D_1   
     e(  6 -  7) =      9.02617  eV     2   --> E    G_5 D_5   
     e(  8 -  8) =      9.66889  eV     1   --> B_2  G_4 D_2'  

 **************************************************************************

 **************************************************************************

                    xk=(   0.00000,   0.11785,   0.00000  )

     Band symmetry, C_4v (4mm)  point group:

     e(  1 -  1) =     -5.69007  eV     1   --> A_1  G_1 D_1   
     e(  2 -  2) =      5.29516  eV     1   --> B_2  G_4 D_2'  
     e(  3 -  4) =      5.58896  eV     2   --> E    G_5 D_5   
     e(  5 -  5) =      8.28758  eV     1   --> A_1  G_1 D_1   
     e(  6 -  7) =      9.12196  eV     2   --> E    G_5 D_5   
     e(  8 -  8) =      9.76951  eV     1   --> B_2  G_4 D_2'  

 **************************************************************************

 **************************************************************************

                    xk=(   0.00000,   0.12964,   0.00000  )

     Band symmetry, C_4v (4mm)  point group:

     e(  1 -  1) =     -5.66507  eV     1   --> A_1  G_1 D_1   
     e(  2 -  2) =      5.17365  eV     1   --> B_2  G_4 D_2'  
     e(  3 -  4) =      5.51825  eV     2   --> E    G_5 D_5   
     e(  5 -  5) =      8.23777  eV     1   --> A_1  G_1 D_1   
     e(  6 -  7) =      9.22330  eV     2   --> E    G_5 D_5   
     e(  8 -  8) =      9.86948  eV     1   --> B_2  G_4 D_2'  

 **************************************************************************

 **************************************************************************

                    xk=(   0.00000,   0.14142,   0.00000  )

     Band symmetry, C_4v (4mm)  point group:

     e(  1 -  1) =     -5.63771  eV     1   --> A_1  G_1 D_1   
     e(  2 -  2) =      5.04774  eV     1   --> B_2  G_4 D_2'  
     e(  3 -  4) =      5.44549  eV     2   --> E    G_5 D_5   
     e(  5 -  5) =      8.18536  eV     1   --> A_1  G_1 D_1   
     e(  6 -  7) =      9.32953  eV     2   --> E    G_5 D_5   
     e(  8 -  8) =      9.96601  eV     1   --> B_2  G_4 D_2'  

 **************************************************************************

 **************************************************************************

                    xk=(   0.00000,   0.15321,   0.00000  )

     Band symmetry, C_4v (4mm)  point group:

     e(  1 -  1) =     -5.60799  eV     1   --> A_1  G_1 D_1   
     e(  2 -  2) =      4.91815  eV     1   --> B_2  G_4 D_2'  
     e(  3 -  4) =      5.37122  eV     2   --> E    G_5 D_5   
     e(  5 -  5) =      8.13076  eV     1   --> A_1  G_1 D_1   
     e(  6 -  7) =      9.44011  eV     2   --> E    G_5 D_5   
     e(  8 -  8) =     10.05594  eV     1   --> B_2  G_4 D_2'  

 **************************************************************************

 **************************************************************************

                    xk=(   0.00000,   0.16499,   0.00000  )

     Band symmetry, C_4v (4mm)  point group:

     e(  1 -  1) =     -5.57591  eV     1   --> A_1  G_1 D_1   
     e(  2 -  2) =      4.78546  eV     1   --> B_2  G_4 D_2'  
     e(  3 -  4) =      5.29591  eV     2   --> E    G_5 D_5   
     e(  5 -  5) =      8.07433  eV     1   --> A_1  G_1 D_1   
     e(  6 -  7) =      9.55454  eV     2   --> E    G_5 D_5   
     e(  8 -  8) =     10.13565  eV     1   --> B_2  G_4 D_2'  

 **************************************************************************

 **************************************************************************

                    xk=(   0.00000,   0.17678,   0.00000  )

     Band symmetry, C_4v (4mm)  point group:

     e(  1 -  1) =     -5.54148  eV     1   --> A_1  G_1 D_1   
     e(  2 -  2) =      4.65018  eV     1   --> B_2  G_4 D_2'  
     e(  3 -  4) =      5.21997  eV     2   --> E    G_5 D_5   
     e(  5 -  5) =      8.01646  eV     1   --> A_1  G_1 D_1   
     e(  6 -  7) =      9.67243  eV     2   --> E    G_5 D_5   
     e(  8 -  8) =     10.20111  eV     1   --> B_2  G_4 D_2'  

 **************************************************************************

 **************************************************************************

                    xk=(   0.00000,   0.18856,   0.00000  )

     Band symmetry, C_4v (4mm)  point group:

     e(  1 -  1) =     -5.50470  eV     1   --> A_1  G_1 D_1   
     e(  2 -  2) =      4.51272  eV     1   --> B_2  G_4 D_2'  
     e(  3 -  4) =      5.14372  eV     2   --> E    G_5 D_5   
     e(  5 -  5) =      7.95746  eV     1   --> A_1  G_1 D_1   
     e(  6 -  7) =      9.79340  eV     2   --> E    G_5 D_5   
     e(  8 -  8) =     10.24820  eV     1   --> B_2  G_4 D_2'  

 **************************************************************************

 **************************************************************************

                    xk=(   0.00000,   0.20035,   0.00000  )

     Band symmetry, C_4v (4mm)  point group:

     e(  1 -  1) =     -5.46558  eV     1   --> A_1  G_1 D_1   
     e(  2 -  2) =      4.37341  eV     1   --> B_2  G_4 D_2'  
     e(  3 -  4) =      5.06747  eV     2   --> E    G_5 D_5   
     e(  5 -  5) =      7.89767  eV     1   --> A_1  G_1 D_1   
     e(  6 -  7) =      9.91715  eV     2   --> E    G_5 D_5   
     e(  8 -  8) =     10.27333  eV     1   --> B_2  G_4 D_2'  

 **************************************************************************

 **************************************************************************

                    xk=(   0.00000,   0.21213,   0.00000  )

     Band symmetry, C_4v (4mm)  point group:

     e(  1 -  1) =     -5.42414  eV     1   --> A_1  G_1 D_1   
     e(  2 -  2) =      4.23254  eV     1   --> B_2  G_4 D_2'  
     e(  3 -  4) =      4.99147  eV     2   --> E    G_5 D_5   
     e(  5 -  5) =      7.83738  eV     1   --> A_1  G_1 D_1   
     e(  6 -  7) =     10.04340  eV     2   --> E    G_5 D_5   
     e(  8 -  8) =     10.27420  eV     1   --> B_2  G_4 D_2'  

 **************************************************************************

 **************************************************************************

                    xk=(   0.00000,   0.22392,   0.00000  )

     Band symmetry, C_4v (4mm)  point group:

     e(  1 -  1) =     -5.38036  eV     1   --> A_1  G_1 D_1   
     e(  2 -  2) =      4.09037  eV     1   --> B_2  G_4 D_2'  
     e(  3 -  4) =      4.91593  eV     2   --> E    G_5 D_5   
     e(  5 -  5) =      7.77685  eV     1   --> A_1  G_1 D_1   
     e(  6 -  7) =     10.17192  eV     2   --> E    G_5 D_5   
     e(  8 -  8) =     10.25043  eV     1   --> B_2  G_4 D_2'  

 **************************************************************************

 **************************************************************************

                    xk=(   0.00000,   0.23570,   0.00000  )

     Band symmetry, C_4v (4mm)  point group:

     e(  1 -  1) =     -5.33427  eV     1   --> A_1  G_1 D_1   
     e(  2 -  2) =      3.94709  eV     1   --> B_2  G_4 D_2'  
     e(  3 -  4) =      4.84106  eV     2   --> E    G_5 D_5   
     e(  5 -  5) =      7.71635  eV     1   --> A_1  G_1 D_1   
     e(  6 -  6) =     10.20365  eV     1   --> B_2  G_4 D_2'  
     e(  7 -  8) =     10.30250  eV     2   --> E    G_5 D_5   

 **************************************************************************

 **************************************************************************

                    xk=(   0.00000,   0.24749,   0.00000  )

     Band symmetry, C_4v (4mm)  point group:

     e(  1 -  1) =     -5.28586  eV     1   --> A_1  G_1 D_1   
     e(  2 -  2) =      3.80287  eV     1   --> B_2  G_4 D_2'  
     e(  3 -  4) =      4.76700  eV     2   --> E    G_5 D_5   
     e(  5 -  5) =      7.65609  eV     1   --> A_1  G_1 D_1   
     e(  6 -  6) =     10.13693  eV     1   --> B_2  G_4 D_2'  
     e(  7 -  8) =     10.43496  eV     2   --> E    G_5 D_5   

 **************************************************************************

 **************************************************************************

                    xk=(   0.00000,   0.25927,   0.00000  )

     Band symmetry, C_4v (4mm)  point group:

     e(  1 -  1) =     -5.23516  eV     1   --> A_1  G_1 D_1   
     e(  2 -  2) =      3.65787  eV     1   --> B_2  G_4 D_2'  
     e(  3 -  4) =      4.69391  eV     2   --> E    G_5 D_5   
     e(  5 -  5) =      7.59630  eV     1   --> A_1  G_1 D_1   
     e(  6 -  6) =     10.05394  eV     1   --> B_2  G_4 D_2'  
     e(  7 -  8) =     10.56914  eV     2   --> E    G_5 D_5   

 **************************************************************************

 **************************************************************************

                    xk=(   0.00000,   0.27106,   0.00000  )

     Band symmetry, C_4v (4mm)  point group:

     e(  1 -  1) =     -5.18215  eV     1   --> A_1  G_1 D_1   
     e(  2 -  2) =      3.51221  eV     1   --> B_2  G_4 D_2'  
     e(  3 -  4) =      4.62192  eV     2   --> E    G_5 D_5   
     e(  5 -  5) =      7.53718  eV     1   --> A_1  G_1 D_1   
     e(  6 -  6) =      9.95832  eV     1   --> B_2  G_4 D_2'  
     e(  7 -  8) =     10.70489  eV     2   --> E    G_5 D_5   

 **************************************************************************

 **************************************************************************

                    xk=(   0.00000,   0.28284,   0.00000  )

     Band symmetry, C_4v (4mm)  point group:

     e(  1 -  1) =     -5.12687  eV     1   --> A_1  G_1 D_1   
     e(  2 -  2) =      3.36600  eV     1   --> B_2  G_4 D_2'  
     e(  3 -  4) =      4.55113  eV     2   --> E    G_5 D_5   
     e(  5 -  5) =      7.47889  eV     1   --> A_1  G_1 D_1   
     e(  6 -  6) =      9.85328  eV     1   --> B_2  G_4 D_2'  
     e(  7 -  8) =     10.84210  eV     2   --> E    G_5 D_5   

 **************************************************************************

 **************************************************************************

                    xk=(   0.00000,   0.29463,   0.00000  )

     Band symmetry, C_4v (4mm)  point group:

     e(  1 -  1) =     -5.06930  eV     1   --> A_1  G_1 D_1   
     e(  2 -  2) =      3.21934  eV     1   --> B_2  G_4 D_2'  
     e(  3 -  4) =      4.48164  eV     2   --> E    G_5 D_5   
     e(  5 -  5) =      7.42161  eV     1   --> A_1  G_1 D_1   
     e(  6 -  6) =      9.74146  eV     1   --> B_2  G_4 D_2'  
     e(  7 -  8) =     10.98065  eV     2   --> E    G_5 D_5   

 **************************************************************************

 **************************************************************************

                    xk=(   0.00000,   0.30641,   0.00000  )

     Band symmetry, C_4v (4mm)  point group:

     e(  1 -  1) =     -5.00947  eV     1   --> A_1  G_1 D_1   
     e(  2 -  2) =      3.07231  eV     1   --> B_2  G_4 D_2'  
     e(  3 -  4) =      4.41354  eV     2   --> E    G_5 D_5   
     e(  5 -  5) =      7.36549  eV     1   --> A_1  G_1 D_1   
     e(  6 -  6) =      9.62498  eV     1   --> B_2  G_4 D_2'  
     e(  7 -  8) =     11.12044  eV     2   --> E    G_5 D_5   

 **************************************************************************

 **************************************************************************

                    xk=(   0.00000,   0.31820,   0.00000  )

     Band symmetry, C_4v (4mm)  point group:

     e(  1 -  1) =     -4.94739  eV     1   --> A_1  G_1 D_1   
     e(  2 -  2) =      2.92500  eV     1   --> B_2  G_4 D_2'  
     e(  3 -  4) =      4.34690  eV     2   --> E    G_5 D_5   
     e(  5 -  5) =      7.31066  eV     1   --> A_1  G_1 D_1   
     e(  6 -  6) =      9.50553  eV     1   --> B_2  G_4 D_2'  
     e(  7 -  8) =     11.26139  eV     2   --> E    G_5 D_5   

 **************************************************************************

 **************************************************************************

                    xk=(   0.00000,   0.32998,   0.00000  )

     Band symmetry, C_4v (4mm)  point group:

     e(  1 -  1) =     -4.88307  eV     1   --> A_1  G_1 D_1   
     e(  2 -  2) =      2.77746  eV     1   --> B_2  G_4 D_2'  
     e(  3 -  4) =      4.28180  eV     2   --> E    G_5 D_5   
     e(  5 -  5) =      7.25727  eV     1   --> A_1  G_1 D_1   
     e(  6 -  6) =      9.38441  eV     1   --> B_2  G_4 D_2'  
     e(  7 -  8) =     11.40341  eV     2   --> E    G_5 D_5   

 **************************************************************************

 **************************************************************************

                    xk=(   0.00000,   0.34177,   0.00000  )

     Band symmetry, C_4v (4mm)  point group:

     e(  1 -  1) =     -4.81651  eV     1   --> A_1  G_1 D_1   
     e(  2 -  2) =      2.62977  eV     1   --> B_2  G_4 D_2'  
     e(  3 -  4) =      4.21829  eV     2   --> E    G_5 D_5   
     e(  5 -  5) =      7.20541  eV     1   --> A_1  G_1 D_1   
     e(  6 -  6) =      9.26263  eV     1   --> B_2  G_4 D_2'  
     e(  7 -  8) =     11.54644  eV     2   --> E    G_5 D_5   

 **************************************************************************

 **************************************************************************

                    xk=(   0.00000,   0.35355,   0.00000  )

     Band symmetry, C_4v (4mm)  point group:

     e(  1 -  1) =     -4.74773  eV     1   --> A_1  G_1 D_1   
     e(  2 -  2) =      2.48198  eV     1   --> B_2  G_4 D_2'  
     e(  3 -  4) =      4.15643  eV     2   --> E    G_5 D_5   
     e(  5 -  5) =      7.15521  eV     1   --> A_1  G_1 D_1   
     e(  6 -  6) =      9.14103  eV     1   --> B_2  G_4 D_2'  
     e(  7 -  8) =     11.69041  eV     2   --> E    G_5 D_5   

 **************************************************************************

 **************************************************************************

                    xk=(   0.00000,   0.36534,   0.00000  )

     Band symmetry, C_4v (4mm)  point group:

     e(  1 -  1) =     -4.67675  eV     1   --> A_1  G_1 D_1   
     e(  2 -  2) =      2.33415  eV     1   --> B_2  G_4 D_2'  
     e(  3 -  4) =      4.09627  eV     2   --> E    G_5 D_5   
     e(  5 -  5) =      7.10677  eV     1   --> A_1  G_1 D_1   
     e(  6 -  6) =      9.02022  eV     1   --> B_2  G_4 D_2'  
     e(  7 -  8) =     11.83527  eV     2   --> E    G_5 D_5   

 **************************************************************************

 **************************************************************************

                    xk=(   0.00000,   0.37712,   0.00000  )

     Band symmetry, C_4v (4mm)  point group:

     e(  1 -  1) =     -4.60358  eV     1   --> A_1  G_1 D_1   
     e(  2 -  2) =      2.18633  eV     1   --> B_2  G_4 D_2'  
     e(  3 -  4) =      4.03786  eV     2   --> E    G_5 D_5   
     e(  5 -  5) =      7.06017  eV     1   --> A_1  G_1 D_1   
     e(  6 -  6) =      8.90074  eV     1   --> B_2  G_4 D_2'  
     e(  7 -  8) =     11.98097  eV     2   --> E    G_5 D_5   

 **************************************************************************

 **************************************************************************

                    xk=(   0.00000,   0.38891,   0.00000  )

     Band symmetry, C_4v (4mm)  point group:

     e(  1 -  1) =     -4.52822  eV     1   --> A_1  G_1 D_1   
     e(  2 -  2) =      2.03858  eV     1   --> B_2  G_4 D_2'  
     e(  3 -  4) =      3.98123  eV     2   --> E    G_5 D_5   
     e(  5 -  5) =      7.01552  eV     1   --> A_1  G_1 D_1   
     e(  6 -  6) =      8.78298  eV     1   --> B_2  G_4 D_2'  
     e(  7 -  8) =     12.12746  eV     2   --> E    G_5 D_5   

 **************************************************************************

 **************************************************************************

                    xk=(   0.00000,   0.40069,   0.00000  )

     Band symmetry, C_4v (4mm)  point group:

     e(  1 -  1) =     -4.45071  eV     1   --> A_1  G_1 D_1   
     e(  2 -  2) =      1.89094  eV     1   --> B_2  G_4 D_2'  
     e(  3 -  4) =      3.92643  eV     2   --> E    G_5 D_5   
     e(  5 -  5) =      6.97288  eV     1   --> A_1  G_1 D_1   
     e(  6 -  6) =      8.66730  eV     1   --> B_2  G_4 D_2'  
     e(  7 -  8) =     12.27471  eV     2   --> E    G_5 D_5   

 **************************************************************************

 **************************************************************************

                    xk=(   0.00000,   0.41248,   0.00000  )

     Band symmetry, C_4v (4mm)  point group:

     e(  1 -  1) =     -4.37105  eV     1   --> A_1  G_1 D_1   
     e(  2 -  2) =      1.74347  eV     1   --> B_2  G_4 D_2'  
     e(  3 -  4) =      3.87349  eV     2   --> E    G_5 D_5   
     e(  5 -  5) =      6.93234  eV     1   --> A_1  G_1 D_1   
     e(  6 -  6) =      8.55396  eV     1   --> B_2  G_4 D_2'  
     e(  7 -  8) =     12.42267  eV     2   --> E    G_5 D_5   

 **************************************************************************

 **************************************************************************

                    xk=(   0.00000,   0.42426,   0.00000  )

     Band symmetry, C_4v (4mm)  point group:

     e(  1 -  1) =     -4.28926  eV     1   --> A_1  G_1 D_1   
     e(  2 -  2) =      1.59621  eV     1   --> B_2  G_4 D_2'  
     e(  3 -  4) =      3.82243  eV     2   --> E    G_5 D_5   
     e(  5 -  5) =      6.89396  eV     1   --> A_1  G_1 D_1   
     e(  6 -  6) =      8.44319  eV     1   --> B_2  G_4 D_2'  
     e(  7 -  8) =     12.57132  eV     2   --> E    G_5 D_5   

 **************************************************************************

 **************************************************************************

                    xk=(   0.00000,   0.43605,   0.00000  )

     Band symmetry, C_4v (4mm)  point group:

     e(  1 -  1) =     -4.20535  eV     1   --> A_1  G_1 D_1   
     e(  2 -  2) =      1.44922  eV     1   --> B_2  G_4 D_2'  
     e(  3 -  4) =      3.77328  eV     2   --> E    G_5 D_5   
     e(  5 -  5) =      6.85783  eV     1   --> A_1  G_1 D_1   
     e(  6 -  6) =      8.33517  eV     1   --> B_2  G_4 D_2'  
     e(  7 -  8) =     12.72062  eV     2   --> E    G_5 D_5   

 **************************************************************************

 **************************************************************************

                    xk=(   0.00000,   0.44783,   0.00000  )

     Band symmetry, C_4v (4mm)  point group:

     e(  1 -  1) =     -4.11935  eV     1   --> A_1  G_1 D_1   
     e(  2 -  2) =      1.30253  eV     1   --> B_2  G_4 D_2'  
     e(  3 -  4) =      3.72608  eV     2   --> E    G_5 D_5   
     e(  5 -  5) =      6.82398  eV     1   --> A_1  G_1 D_1   
     e(  6 -  6) =      8.23006  eV     1   --> B_2  G_4 D_2'  
     e(  7 -  8) =     12.87055  eV     2   --> E    G_5 D_5   

 **************************************************************************

 **************************************************************************

                    xk=(   0.00000,   0.45962,   0.00000  )

     Band symmetry, C_4v (4mm)  point group:

     e(  1 -  1) =     -4.03127  eV     1   --> A_1  G_1 D_1   
     e(  2 -  2) =      1.15621  eV     1   --> B_2  G_4 D_2'  
     e(  3 -  4) =      3.68084  eV     2   --> E    G_5 D_5   
     e(  5 -  5) =      6.79250  eV     1   --> A_1  G_1 D_1   
     e(  6 -  6) =      8.12797  eV     1   --> B_2  G_4 D_2'  
     e(  7 -  8) =     13.02108  eV     2   --> E    G_5 D_5   

 **************************************************************************

 **************************************************************************

                    xk=(   0.00000,   0.47140,   0.00000  )

     Band symmetry, C_4v (4mm)  point group:

     e(  1 -  1) =     -3.94114  eV     1   --> A_1  G_1 D_1   
     e(  2 -  2) =      1.01030  eV     1   --> B_2  G_4 D_2'  
     e(  3 -  4) =      3.63759  eV     2   --> E    G_5 D_5   
     e(  5 -  5) =      6.76343  eV     1   --> A_1  G_1 D_1   
     e(  6 -  6) =      8.02901  eV     1   --> B_2  G_4 D_2'  
     e(  7 -  8) =     13.17219  eV     2   --> E    G_5 D_5   

 **************************************************************************

 **************************************************************************

                    xk=(   0.00000,   0.48319,   0.00000  )

     Band symmetry, C_4v (4mm)  point group:

     e(  1 -  1) =     -3.84896  eV     1   --> A_1  G_1 D_1   
     e(  2 -  2) =      0.86485  eV     1   --> B_2  G_4 D_2'  
     e(  3 -  4) =      3.59634  eV     2   --> E    G_5 D_5   
     e(  5 -  5) =      6.73683  eV     1   --> A_1  G_1 D_1   
     e(  6 -  6) =      7.93327  eV     1   --> B_2  G_4 D_2'  
     e(  7 -  8) =     13.32384  eV     2   --> E    G_5 D_5   

 **************************************************************************

 **************************************************************************

                    xk=(   0.00000,   0.49497,   0.00000  )

     Band symmetry, C_4v (4mm)  point group:

     e(  1 -  1) =     -3.75477  eV     1   --> A_1  G_1 D_1   
     e(  2 -  2) =      0.71991  eV     1   --> B_2  G_4 D_2'  
     e(  3 -  4) =      3.55711  eV     2   --> E    G_5 D_5   
     e(  5 -  5) =      6.71275  eV     1   --> A_1  G_1 D_1   
     e(  6 -  6) =      7.84080  eV     1   --> B_2  G_4 D_2'  
     e(  7 -  8) =     13.47600  eV     2   --> E    G_5 D_5   

 **************************************************************************

 **************************************************************************

                    xk=(   0.00000,   0.50676,   0.00000  )

     Band symmetry, C_4v (4mm)  point group:

     e(  1 -  1) =     -3.65859  eV     1   --> A_1  G_1 D_1   
     e(  2 -  2) =      0.57553  eV     1   --> B_2  G_4 D_2'  
     e(  3 -  4) =      3.51993  eV     2   --> E    G_5 D_5   
     e(  5 -  5) =      6.69123  eV     1   --> A_1  G_1 D_1   
     e(  6 -  6) =      7.75166  eV     1   --> B_2  G_4 D_2'  
     e(  7 -  8) =     13.62863  eV     2   --> E    G_5 D_5   

 **************************************************************************

 **************************************************************************

                    xk=(   0.00000,   0.51854,   0.00000  )

     Band symmetry, C_4v (4mm)  point group:

     e(  1 -  1) =     -3.56043  eV     1   --> A_1  G_1 D_1   
     e(  2 -  2) =      0.43177  eV     1   --> B_2  G_4 D_2'  
     e(  3 -  4) =      3.48479  eV     2   --> E    G_5 D_5   
     e(  5 -  5) =      6.67233  eV     1   --> A_1  G_1 D_1   
     e(  6 -  6) =      7.66590  eV     1   --> B_2  G_4 D_2'  
     e(  7 -  8) =     13.78169  eV     2   --> E    G_5 D_5   

 **************************************************************************

 **************************************************************************

                    xk=(   0.00000,   0.53033,   0.00000  )

     Band symmetry, C_4v (4mm)  point group:

     e(  1 -  1) =     -3.46033  eV     1   --> A_1  G_1 D_1   
     e(  2 -  2) =      0.28867  eV     1   --> B_2  G_4 D_2'  
     e(  3 -  4) =      3.45173  eV     2   --> E    G_5 D_5   
     e(  5 -  5) =      6.65610  eV     1   --> A_1  G_1 D_1   
     e(  6 -  6) =      7.58354  eV     1   --> B_2  G_4 D_2'  
     e(  7 -  8) =     13.93513  eV     2   --> E    G_5 D_5   

 **************************************************************************

 **************************************************************************

                    xk=(   0.00000,   0.54212,   0.00000  )

     Band symmetry, C_4v (4mm)  point group:

     e(  1 -  1) =     -3.35830  eV     1   --> A_1  G_1 D_1   
     e(  2 -  2) =      0.14628  eV     1   --> B_2  G_4 D_2'  
     e(  3 -  4) =      3.42074  eV     2   --> E    G_5 D_5   
     e(  5 -  5) =      6.64256  eV     1   --> A_1  G_1 D_1   
     e(  6 -  6) =      7.50461  eV     1   --> B_2  G_4 D_2'  
     e(  7 -  8) =     14.08888  eV     2   --> E    G_5 D_5   

 **************************************************************************

 **************************************************************************

                    xk=(   0.00000,   0.55390,   0.00000  )

     Band symmetry, C_4v (4mm)  point group:

     e(  1 -  1) =     -3.25438  eV     1   --> A_1  G_1 D_1   
     e(  2 -  2) =      0.00466  eV     1   --> B_2  G_4 D_2'  
     e(  3 -  4) =      3.39185  eV     2   --> E    G_5 D_5   
     e(  5 -  5) =      6.63178  eV     1   --> A_1  G_1 D_1   
     e(  6 -  6) =      7.42911  eV     1   --> B_2  G_4 D_2'  
     e(  7 -  8) =     14.24284  eV     2   --> E    G_5 D_5   

 **************************************************************************

 **************************************************************************

                    xk=(   0.00000,   0.56569,   0.00000  )

     Band symmetry, C_4v (4mm)  point group:

     e(  1 -  1) =     -3.14858  eV     1   --> A_1  G_1 D_1   
     e(  2 -  2) =     -0.13615  eV     1   --> B_2  G_4 D_2'  
     e(  3 -  4) =      3.36506  eV     2   --> E    G_5 D_5   
     e(  5 -  5) =      6.62378  eV     1   --> A_1  G_1 D_1   
     e(  6 -  6) =      7.35707  eV     1   --> B_2  G_4 D_2'  
     e(  7 -  8) =     14.39689  eV     2   --> E    G_5 D_5   

 **************************************************************************

 **************************************************************************

                    xk=(   0.00000,   0.57747,   0.00000  )

     Band symmetry, C_4v (4mm)  point group:

     e(  1 -  1) =     -3.04094  eV     1   --> A_1  G_1 D_1   
     e(  2 -  2) =     -0.27609  eV     1   --> B_2  G_4 D_2'  
     e(  3 -  4) =      3.34038  eV     2   --> E    G_5 D_5   
     e(  5 -  5) =      6.61860  eV     1   --> A_1  G_1 D_1   
     e(  6 -  6) =      7.28848  eV     1   --> B_2  G_4 D_2'  
     e(  7 -  8) =     14.55088  eV     2   --> E    G_5 D_5   

 **************************************************************************

 **************************************************************************

                    xk=(   0.00000,   0.58926,   0.00000  )

     Band symmetry, C_4v (4mm)  point group:

     e(  1 -  1) =     -2.93149  eV     1   --> A_1  G_1 D_1   
     e(  2 -  2) =     -0.41512  eV     1   --> B_2  G_4 D_2'  
     e(  3 -  4) =      3.31781  eV     2   --> E    G_5 D_5   
     e(  5 -  5) =      6.61630  eV     1   --> A_1  G_1 D_1   
     e(  6 -  6) =      7.22334  eV     1   --> B_2  G_4 D_2'  
     e(  7 -  8) =     14.70457  eV     2   --> E    G_5 D_5   

 **************************************************************************

 **************************************************************************

                    xk=(   0.00000,   0.60104,   0.00000  )

     Band symmetry, C_4v (4mm)  point group:

     e(  1 -  1) =     -2.82025  eV     1   --> A_1  G_1 D_1   
     e(  2 -  2) =     -0.55317  eV     1   --> B_2  G_4 D_2'  
     e(  3 -  4) =      3.29738  eV     2   --> E    G_5 D_5   
     e(  5 -  5) =      6.61689  eV     1   --> A_1  G_1 D_1   
     e(  6 -  6) =      7.16164  eV     1   --> B_2  G_4 D_2'  
     e(  7 -  8) =     14.85765  eV     2   --> E    G_5 D_5   

 **************************************************************************

 **************************************************************************

                    xk=(   0.00000,   0.61283,   0.00000  )

     Band symmetry, C_4v (4mm)  point group:

     e(  1 -  1) =     -2.70726  eV     1   --> A_1  G_1 D_1   
     e(  2 -  2) =     -0.69021  eV     1   --> B_2  G_4 D_2'  
     e(  3 -  4) =      3.27908  eV     2   --> E    G_5 D_5   
     e(  5 -  5) =      6.62042  eV     1   --> A_1  G_1 D_1   
     e(  6 -  6) =      7.10337  eV     1   --> B_2  G_4 D_2'  
     e(  7 -  8) =     15.00967  eV     2   --> E    G_5 D_5   

 **************************************************************************

 **************************************************************************

                    xk=(   0.00000,   0.62461,   0.00000  )

     Band symmetry, C_4v (4mm)  point group:

     e(  1 -  1) =     -2.59255  eV     1   --> A_1  G_1 D_1   
     e(  2 -  2) =     -0.82619  eV     1   --> B_2  G_4 D_2'  
     e(  3 -  4) =      3.26292  eV     2   --> E    G_5 D_5   
     e(  5 -  5) =      6.62693  eV     1   --> A_1  G_1 D_1   
     e(  6 -  6) =      7.04852  eV     1   --> B_2  G_4 D_2'  
     e(  7 -  8) =     15.15994  eV     2   --> E    G_5 D_5   

 **************************************************************************

 **************************************************************************

                    xk=(   0.00000,   0.63640,   0.00000  )

     Band symmetry, C_4v (4mm)  point group:

     e(  1 -  1) =     -2.47614  eV     1   --> A_1  G_1 D_1   
     e(  2 -  2) =     -0.96105  eV     1   --> B_2  G_4 D_2'  
     e(  3 -  4) =      3.24890  eV     2   --> E    G_5 D_5   
     e(  5 -  5) =      6.63645  eV     1   --> A_1  G_1 D_1   
     e(  6 -  6) =      6.99707  eV     1   --> B_2  G_4 D_2'  
     e(  7 -  8) =     15.30743  eV     2   --> E    G_5 D_5   

 **************************************************************************

 **************************************************************************

                    xk=(   0.00000,   0.64818,   0.00000  )

     Band symmetry, C_4v (4mm)  point group:

     e(  1 -  1) =     -2.35808  eV     1   --> A_1  G_1 D_1   
     e(  2 -  2) =     -1.09475  eV     1   --> B_2  G_4 D_2'  
     e(  3 -  4) =      3.23703  eV     2   --> E    G_5 D_5   
     e(  5 -  5) =      6.64901  eV     1   --> A_1  G_1 D_1   
     e(  6 -  6) =      6.94900  eV     1   --> B_2  G_4 D_2'  
     e(  7 -  8) =     15.45050  eV     2   --> E    G_5 D_5   

 **************************************************************************

 **************************************************************************

                    xk=(   0.00000,   0.65997,   0.00000  )

     Band symmetry, C_4v (4mm)  point group:

     e(  1 -  1) =     -2.23840  eV     1   --> A_1  G_1 D_1   
     e(  2 -  2) =     -1.22724  eV     1   --> B_2  G_4 D_2'  
     e(  3 -  4) =      3.22732  eV     2   --> E    G_5 D_5   
     e(  5 -  5) =      6.66465  eV     1   --> A_1  G_1 D_1   
     e(  6 -  6) =      6.90430  eV     1   --> B_2  G_4 D_2'  
     e(  7 -  8) =     15.58643  eV     2   --> E    G_5 D_5   

 **************************************************************************

 **************************************************************************

                    xk=(   0.00000,   0.67175,   0.00000  )

     Band symmetry, C_4v (4mm)  point group:

     e(  1 -  1) =     -2.11714  eV     1   --> A_1  G_1 D_1   
     e(  2 -  2) =     -1.35848  eV     1   --> B_2  G_4 D_2'  
     e(  3 -  4) =      3.21976  eV     2   --> E    G_5 D_5   
     e(  5 -  5) =      6.68340  eV     1   --> A_1  G_1 D_1   
     e(  6 -  6) =      6.86294  eV     1   --> B_2  G_4 D_2'  
     e(  7 -  8) =     15.71061  eV     2   --> E    G_5 D_5   

 **************************************************************************

 **************************************************************************

                    xk=(   0.00000,   0.68354,   0.00000  )

     Band symmetry, C_4v (4mm)  point group:

     e(  1 -  1) =     -1.99433  eV     1   --> A_1  G_1 D_1   
     e(  2 -  2) =     -1.48842  eV     1   --> B_2  G_4 D_2'  
     e(  3 -  4) =      3.21436  eV     2   --> E    G_5 D_5   
     e(  5 -  5) =      6.70529  eV     1   --> A_1  G_1 D_1   
     e(  6 -  6) =      6.82489  eV     1   --> B_2  G_4 D_2'  
     e(  7 -  8) =     15.81523  eV     2   --> E    G_5 D_5   

 **************************************************************************

 **************************************************************************

                    xk=(   0.00000,   0.69532,   0.00000  )

     Band symmetry, C_4v (4mm)  point group:

     e(  1 -  1) =     -1.87002  eV     1   --> A_1  G_1 D_1   
     e(  2 -  2) =     -1.61702  eV     1   --> B_2  G_4 D_2'  
     e(  3 -  4) =      3.21112  eV     2   --> E    G_5 D_5   
     e(  5 -  5) =      6.73036  eV     1   --> A_1  G_1 D_1   
     e(  6 -  6) =      6.79012  eV     1   --> B_2  G_4 D_2'  
     e(  7 -  8) =     15.88805  eV     2   --> E    G_5 D_5   

 **************************************************************************

 **************************************************************************

                    xk=(   0.00000,   0.70711,   0.00000  )

     zone border point and non-symmorphic group 
     symmetry decomposition not available

 **************************************************************************

 **************************************************************************

                    xk=(   0.00295,   0.70711,   0.00295  )

     point group C_2v (mm2) 
     there are  4 classes
     the character table:

       E     C2    s_v   s_v' 
A_1    1.00  1.00  1.00  1.00
A_2    1.00  1.00 -1.00 -1.00
B_1    1.00 -1.00  1.00 -1.00
B_2    1.00 -1.00 -1.00  1.00

     the symmetry operations in each class and the name of the first element:

     E        1
                                                                 
     C2       2
                                                                 
     s_v      3
                                                                 
     s_v'     4
                                                                 

     Band symmetry, C_2v (mm2)  point group:

     e(  1 -  1) =     -1.74430  eV     1   --> B_2  D_4  S_4  
     e(  2 -  2) =     -1.74407  eV     1   --> A_1  D_1  S_1  
     e(  3 -  3) =      3.20902  eV     1   --> B_2  D_4  S_4  
     e(  4 -  4) =      3.21015  eV     1   --> B_1  D_3  S_3  
     e(  5 -  5) =      6.75876  eV     1   --> A_1  D_1  S_1  
     e(  6 -  6) =      6.76014  eV     1   --> B_2  D_4  S_4  
     e(  7 -  7) =     15.91309  eV     1   --> A_2  D_2  S_2  
     e(  8 -  8) =     15.91379  eV     1   --> A_1  D_1  S_1  

 **************************************************************************

 **************************************************************************

                    xk=(   0.00589,   0.70711,   0.00589  )

     Band symmetry, C_2v (mm2)  point group:

     e(  1 -  1) =     -1.74449  eV     1   --> B_2  D_4  S_4  
     e(  2 -  2) =     -1.74358  eV     1   --> A_1  D_1  S_1  
     e(  3 -  3) =      3.20596  eV     1   --> B_2  D_4  S_4  
     e(  4 -  4) =      3.21051  eV     1   --> B_1  D_3  S_3  
     e(  5 -  5) =      6.75917  eV     1   --> A_1  D_1  S_1  
     e(  6 -  6) =      6.76469  eV     1   --> B_2  D_4  S_4  
     e(  7 -  7) =     15.90826  eV     1   --> A_2  D_2  S_2  
     e(  8 -  8) =     15.91106  eV     1   --> A_1  D_1  S_1  

 **************************************************************************

 **************************************************************************

                    xk=(   0.00884,   0.70711,   0.00884  )

     Band symmetry, C_2v (mm2)  point group:

     e(  1 -  1) =     -1.74482  eV     1   --> B_2  D_4  S_4  
     e(  2 -  2) =     -1.74277  eV     1   --> A_1  D_1  S_1  
     e(  3 -  3) =      3.20090  eV     1   --> B_2  D_4  S_4  
     e(  4 -  4) =      3.21111  eV     1   --> B_1  D_3  S_3  
     e(  5 -  5) =      6.75986  eV     1   --> A_1  D_1  S_1  
     e(  6 -  6) =      6.77226  eV     1   --> B_2  D_4  S_4  
     e(  7 -  7) =     15.90025  eV     1   --> A_2  D_2  S_2  
     e(  8 -  8) =     15.90651  eV     1   --> A_1  D_1  S_1  

 **************************************************************************

 **************************************************************************

                    xk=(   0.01179,   0.70711,   0.01179  )

     Band symmetry, C_2v (mm2)  point group:

     e(  1 -  1) =     -1.74528  eV     1   --> B_2  D_4  S_4  
     e(  2 -  2) =     -1.74164  eV     1   --> A_1  D_1  S_1  
     e(  3 -  3) =      3.19385  eV     1   --> B_2  D_4  S_4  
     e(  4 -  4) =      3.21195  eV     1   --> B_1  D_3  S_3  
     e(  5 -  5) =      6.76082  eV     1   --> A_1  D_1  S_1  
     e(  6 -  6) =      6.78281  eV     1   --> B_2  D_4  S_4  
     e(  7 -  7) =     15.88912  eV     1   --> A_2  D_2  S_2  
     e(  8 -  8) =     15.90017  eV     1   --> A_1  D_1  S_1  

 **************************************************************************

 **************************************************************************

                    xk=(   0.01473,   0.70711,   0.01473  )

     Band symmetry, C_2v (mm2)  point group:

     e(  1 -  1) =     -1.74588  eV     1   --> B_2  D_4  S_4  
     e(  2 -  2) =     -1.74018  eV     1   --> A_1  D_1  S_1  
     e(  3 -  3) =      3.18486  eV     1   --> B_2  D_4  S_4  
     e(  4 -  4) =      3.21303  eV     1   --> B_1  D_3  S_3  
     e(  5 -  5) =      6.76206  eV     1   --> A_1  D_1  S_1  
     e(  6 -  6) =      6.79631  eV     1   --> B_2  D_4  S_4  
     e(  7 -  7) =     15.87498  eV     1   --> A_2  D_2  S_2  
     e(  8 -  8) =     15.89207  eV     1   --> A_1  D_1  S_1  

 **************************************************************************

 **************************************************************************

                    xk=(   0.01768,   0.70711,   0.01768  )

     Band symmetry, C_2v (mm2)  point group:

     e(  1 -  1) =     -1.74661  eV     1   --> B_2  D_4  S_4  
     e(  2 -  2) =     -1.73839  eV     1   --> A_1  D_1  S_1  
     e(  3 -  3) =      3.17397  eV     1   --> B_2  D_4  S_4  
     e(  4 -  4) =      3.21434  eV     1   --> B_1  D_3  S_3  
     e(  5 -  5) =      6.76357  eV     1   --> A_1  D_1  S_1  
     e(  6 -  6) =      6.81271  eV     1   --> B_2  D_4  S_4  
     e(  7 -  7) =     15.85791  eV     1   --> A_2  D_2  S_2  
     e(  8 -  8) =     15.88222  eV     1   --> A_1  D_1  S_1  

 **************************************************************************

 **************************************************************************

                    xk=(   0.02062,   0.70711,   0.02062  )

     Band symmetry, C_2v (mm2)  point group:

     e(  1 -  1) =     -1.74748  eV     1   --> B_2  D_4  S_4  
     e(  2 -  2) =     -1.73629  eV     1   --> A_1  D_1  S_1  
     e(  3 -  3) =      3.16125  eV     1   --> B_2  D_4  S_4  
     e(  4 -  4) =      3.21590  eV     1   --> B_1  D_3  S_3  
     e(  5 -  5) =      6.76536  eV     1   --> A_1  D_1  S_1  
     e(  6 -  6) =      6.83195  eV     1   --> B_2  D_4  S_4  
     e(  7 -  7) =     15.83804  eV     1   --> A_2  D_2  S_2  
     e(  8 -  8) =     15.87068  eV     1   --> A_1  D_1  S_1  

 **************************************************************************

 **************************************************************************

                    xk=(   0.02357,   0.70711,   0.02357  )

     Band symmetry, C_2v (mm2)  point group:

     e(  1 -  1) =     -1.74849  eV     1   --> B_2  D_4  S_4  
     e(  2 -  2) =     -1.73385  eV     1   --> A_1  D_1  S_1  
     e(  3 -  3) =      3.14677  eV     1   --> B_2  D_4  S_4  
     e(  4 -  4) =      3.21769  eV     1   --> B_1  D_3  S_3  
     e(  5 -  5) =      6.76742  eV     1   --> A_1  D_1  S_1  
     e(  6 -  6) =      6.85396  eV     1   --> B_2  D_4  S_4  
     e(  7 -  7) =     15.81552  eV     1   --> A_2  D_2  S_2  
     e(  8 -  8) =     15.85747  eV     1   --> A_1  D_1  S_1  

 **************************************************************************

 **************************************************************************

                    xk=(   0.02652,   0.70711,   0.02652  )

     Band symmetry, C_2v (mm2)  point group:

     e(  1 -  1) =     -1.74964  eV     1   --> B_2  D_4  S_4  
     e(  2 -  2) =     -1.73110  eV     1   --> A_1  D_1  S_1  
     e(  3 -  3) =      3.13059  eV     1   --> B_2  D_4  S_4  
     e(  4 -  4) =      3.21973  eV     1   --> B_1  D_3  S_3  
     e(  5 -  5) =      6.76976  eV     1   --> A_1  D_1  S_1  
     e(  6 -  6) =      6.87867  eV     1   --> B_2  D_4  S_4  
     e(  7 -  7) =     15.79048  eV     1   --> A_2  D_2  S_2  
     e(  8 -  8) =     15.84266  eV     1   --> A_1  D_1  S_1  

 **************************************************************************

 **************************************************************************

                    xk=(   0.02946,   0.70711,   0.02946  )

     Band symmetry, C_2v (mm2)  point group:

     e(  1 -  1) =     -1.75094  eV     1   --> B_2  D_4  S_4  
     e(  2 -  2) =     -1.72802  eV     1   --> A_1  D_1  S_1  
     e(  3 -  3) =      3.11281  eV     1   --> B_2  D_4  S_4  
     e(  4 -  4) =      3.22200  eV     1   --> B_1  D_3  S_3  
     e(  5 -  5) =      6.77237  eV     1   --> A_1  D_1  S_1  
     e(  6 -  6) =      6.90601  eV     1   --> B_2  D_4  S_4  
     e(  7 -  7) =     15.76306  eV     1   --> A_2  D_2  S_2  
     e(  8 -  8) =     15.82628  eV     1   --> A_1  D_1  S_1  

 **************************************************************************

 **************************************************************************

                    xk=(   0.03241,   0.70711,   0.03241  )

     Band symmetry, C_2v (mm2)  point group:

     e(  1 -  1) =     -1.75239  eV     1   --> B_2  D_4  S_4  
     e(  2 -  2) =     -1.72461  eV     1   --> A_1  D_1  S_1  
     e(  3 -  3) =      3.09350  eV     1   --> B_2  D_4  S_4  
     e(  4 -  4) =      3.22451  eV     1   --> B_1  D_3  S_3  
     e(  5 -  5) =      6.77525  eV     1   --> A_1  D_1  S_1  
     e(  6 -  6) =      6.93588  eV     1   --> B_2  D_4  S_4  
     e(  7 -  7) =     15.73343  eV     1   --> A_2  D_2  S_2  
     e(  8 -  8) =     15.80840  eV     1   --> A_1  D_1  S_1  

 **************************************************************************

 **************************************************************************

                    xk=(   0.03536,   0.70711,   0.03536  )

     Band symmetry, C_2v (mm2)  point group:

     e(  1 -  1) =     -1.75399  eV     1   --> B_2  D_4  S_4  
     e(  2 -  2) =     -1.72088  eV     1   --> A_1  D_1  S_1  
     e(  3 -  3) =      3.07276  eV     1   --> B_2  D_4  S_4  
     e(  4 -  4) =      3.22726  eV     1   --> B_1  D_3  S_3  
     e(  5 -  5) =      6.77841  eV     1   --> A_1  D_1  S_1  
     e(  6 -  6) =      6.96821  eV     1   --> B_2  D_4  S_4  
     e(  7 -  7) =     15.70174  eV     1   --> A_2  D_2  S_2  
     e(  8 -  8) =     15.78907  eV     1   --> A_1  D_1  S_1  

 **************************************************************************

 **************************************************************************

                    xk=(   0.03830,   0.70711,   0.03830  )

     Band symmetry, C_2v (mm2)  point group:

     e(  1 -  1) =     -1.75575  eV     1   --> B_2  D_4  S_4  
     e(  2 -  2) =     -1.71683  eV     1   --> A_1  D_1  S_1  
     e(  3 -  3) =      3.05068  eV     1   --> B_2  D_4  S_4  
     e(  4 -  4) =      3.23024  eV     1   --> B_1  D_3  S_3  
     e(  5 -  5) =      6.78184  eV     1   --> A_1  D_1  S_1  
     e(  6 -  6) =      7.00291  eV     1   --> B_2  D_4  S_4  
     e(  7 -  7) =     15.66812  eV     1   --> A_2  D_2  S_2  
     e(  8 -  8) =     15.76834  eV     1   --> A_1  D_1  S_1  

 **************************************************************************

 **************************************************************************

                    xk=(   0.04125,   0.70711,   0.04125  )

     Band symmetry, C_2v (mm2)  point group:

     e(  1 -  1) =     -1.75768  eV     1   --> B_2  D_4  S_4  
     e(  2 -  2) =     -1.71245  eV     1   --> A_1  D_1  S_1  
     e(  3 -  3) =      3.02735  eV     1   --> B_2  D_4  S_4  
     e(  4 -  4) =      3.23347  eV     1   --> B_1  D_3  S_3  
     e(  5 -  5) =      6.78554  eV     1   --> A_1  D_1  S_1  
     e(  6 -  6) =      7.03989  eV     1   --> B_2  D_4  S_4  
     e(  7 -  7) =     15.63272  eV     1   --> A_2  D_2  S_2  
     e(  8 -  8) =     15.74628  eV     1   --> A_1  D_1  S_1  

 **************************************************************************

 **************************************************************************

                    xk=(   0.04419,   0.70711,   0.04419  )

     Band symmetry, C_2v (mm2)  point group:

     e(  1 -  1) =     -1.75977  eV     1   --> B_2  D_4  S_4  
     e(  2 -  2) =     -1.70775  eV     1   --> A_1  D_1  S_1  
     e(  3 -  3) =      3.00286  eV     1   --> B_2  D_4  S_4  
     e(  4 -  4) =      3.23693  eV     1   --> B_1  D_3  S_3  
     e(  5 -  5) =      6.78952  eV     1   --> A_1  D_1  S_1  
     e(  6 -  6) =      7.07906  eV     1   --> B_2  D_4  S_4  
     e(  7 -  7) =     15.59569  eV     1   --> A_2  D_2  S_2  
     e(  8 -  8) =     15.72294  eV     1   --> A_1  D_1  S_1  

 **************************************************************************

 **************************************************************************

                    xk=(   0.04714,   0.70711,   0.04714  )

     Band symmetry, C_2v (mm2)  point group:

     e(  1 -  1) =     -1.76204  eV     1   --> B_2  D_4  S_4  
     e(  2 -  2) =     -1.70273  eV     1   --> A_1  D_1  S_1  
     e(  3 -  3) =      2.97731  eV     1   --> B_2  D_4  S_4  
     e(  4 -  4) =      3.24063  eV     1   --> B_1  D_3  S_3  
     e(  5 -  5) =      6.79377  eV     1   --> A_1  D_1  S_1  
     e(  6 -  6) =      7.12034  eV     1   --> B_2  D_4  S_4  
     e(  7 -  7) =     15.55715  eV     1   --> A_2  D_2  S_2  
     e(  8 -  8) =     15.69839  eV     1   --> A_1  D_1  S_1  

 **************************************************************************

 **************************************************************************

                    xk=(   0.05009,   0.70711,   0.05009  )

     Band symmetry, C_2v (mm2)  point group:

     e(  1 -  1) =     -1.76449  eV     1   --> B_2  D_4  S_4  
     e(  2 -  2) =     -1.69738  eV     1   --> A_1  D_1  S_1  
     e(  3 -  3) =      2.95078  eV     1   --> B_2  D_4  S_4  
     e(  4 -  4) =      3.24456  eV     1   --> B_1  D_3  S_3  
     e(  5 -  5) =      6.79829  eV     1   --> A_1  D_1  S_1  
     e(  6 -  6) =      7.16363  eV     1   --> B_2  D_4  S_4  
     e(  7 -  7) =     15.51722  eV     1   --> A_2  D_2  S_2  
     e(  8 -  8) =     15.67269  eV     1   --> A_1  D_1  S_1  

 **************************************************************************

 **************************************************************************

                    xk=(   0.05303,   0.70711,   0.05303  )

     Band symmetry, C_2v (mm2)  point group:

     e(  1 -  1) =     -1.76712  eV     1   --> B_2  D_4  S_4  
     e(  2 -  2) =     -1.69171  eV     1   --> A_1  D_1  S_1  
     e(  3 -  3) =      2.92338  eV     1   --> B_2  D_4  S_4  
     e(  4 -  4) =      3.24873  eV     1   --> B_1  D_3  S_3  
     e(  5 -  5) =      6.80308  eV     1   --> A_1  D_1  S_1  
     e(  6 -  6) =      7.20885  eV     1   --> B_2  D_4  S_4  
     e(  7 -  7) =     15.47603  eV     1   --> A_2  D_2  S_2  
     e(  8 -  8) =     15.64588  eV     1   --> A_1  D_1  S_1  

 **************************************************************************

 **************************************************************************

                    xk=(   0.05598,   0.70711,   0.05598  )

     Band symmetry, C_2v (mm2)  point group:

     e(  1 -  1) =     -1.76995  eV     1   --> B_2  D_4  S_4  
     e(  2 -  2) =     -1.68571  eV     1   --> A_1  D_1  S_1  
     e(  3 -  3) =      2.89518  eV     1   --> B_2  D_4  S_4  
     e(  4 -  4) =      3.25314  eV     1   --> B_1  D_3  S_3  
     e(  5 -  5) =      6.80815  eV     1   --> A_1  D_1  S_1  
     e(  6 -  6) =      7.25591  eV     1   --> B_2  D_4  S_4  
     e(  7 -  7) =     15.43367  eV     1   --> A_2  D_2  S_2  
     e(  8 -  8) =     15.61804  eV     1   --> A_1  D_1  S_1  

 **************************************************************************

 **************************************************************************

                    xk=(   0.05893,   0.70711,   0.05893  )

     Band symmetry, C_2v (mm2)  point group:

     e(  1 -  1) =     -1.77298  eV     1   --> B_2  D_4  S_4  
     e(  2 -  2) =     -1.67939  eV     1   --> A_1  D_1  S_1  
     e(  3 -  3) =      2.86628  eV     1   --> B_2  D_4  S_4  
     e(  4 -  4) =      3.25778  eV     1   --> B_1  D_3  S_3  
     e(  5 -  5) =      6.81348  eV     1   --> A_1  D_1  S_1  
     e(  6 -  6) =      7.30475  eV     1   --> B_2  D_4  S_4  
     e(  7 -  7) =     15.39026  eV     1   --> A_2  D_2  S_2  
     e(  8 -  8) =     15.58922  eV     1   --> A_1  D_1  S_1  

 **************************************************************************

 **************************************************************************

                    xk=(   0.06187,   0.70711,   0.06187  )

     Band symmetry, C_2v (mm2)  point group:

     e(  1 -  1) =     -1.77621  eV     1   --> B_2  D_4  S_4  
     e(  2 -  2) =     -1.67274  eV     1   --> A_1  D_1  S_1  
     e(  3 -  3) =      2.83676  eV     1   --> B_2  D_4  S_4  
     e(  4 -  4) =      3.26266  eV     1   --> B_1  D_3  S_3  
     e(  5 -  5) =      6.81909  eV     1   --> A_1  D_1  S_1  
     e(  6 -  6) =      7.35528  eV     1   --> B_2  D_4  S_4  
     e(  7 -  7) =     15.34589  eV     1   --> A_2  D_2  S_2  
     e(  8 -  8) =     15.55946  eV     1   --> A_1  D_1  S_1  

 **************************************************************************

 **************************************************************************

                    xk=(   0.06482,   0.70711,   0.06482  )

     Band symmetry, C_2v (mm2)  point group:

     e(  1 -  1) =     -1.77966  eV     1   --> B_2  D_4  S_4  
     e(  2 -  2) =     -1.66578  eV     1   --> A_1  D_1  S_1  
     e(  3 -  3) =      2.80670  eV     1   --> B_2  D_4  S_4  
     e(  4 -  4) =      3.26777  eV     1   --> B_1  D_3  S_3  
     e(  5 -  5) =      6.82497  eV     1   --> A_1  D_1  S_1  
     e(  6 -  6) =      7.40742  eV     1   --> B_2  D_4  S_4  
     e(  7 -  7) =     15.30064  eV     1   --> A_2  D_2  S_2  
     e(  8 -  8) =     15.52883  eV     1   --> A_1  D_1  S_1  

 **************************************************************************

 **************************************************************************

                    xk=(   0.06776,   0.70711,   0.06776  )

     Band symmetry, C_2v (mm2)  point group:

     e(  1 -  1) =     -1.78333  eV     1   --> B_2  D_4  S_4  
     e(  2 -  2) =     -1.65849  eV     1   --> A_1  D_1  S_1  
     e(  3 -  3) =      2.77617  eV     1   --> B_2  D_4  S_4  
     e(  4 -  4) =      3.27312  eV     1   --> B_1  D_3  S_3  
     e(  5 -  5) =      6.83111  eV     1   --> A_1  D_1  S_1  
     e(  6 -  6) =      7.46111  eV     1   --> B_2  D_4  S_4  
     e(  7 -  7) =     15.25459  eV     1   --> A_2  D_2  S_2  
     e(  8 -  8) =     15.49738  eV     1   --> A_1  D_1  S_1  

 **************************************************************************

 **************************************************************************

                    xk=(   0.07071,   0.70711,   0.07071  )

     Band symmetry, C_2v (mm2)  point group:

     e(  1 -  1) =     -1.78723  eV     1   --> B_2  D_4  S_4  
     e(  2 -  2) =     -1.65087  eV     1   --> A_1  D_1  S_1  
     e(  3 -  3) =      2.74526  eV     1   --> B_2  D_4  S_4  
     e(  4 -  4) =      3.27870  eV     1   --> B_1  D_3  S_3  
     e(  5 -  5) =      6.83753  eV     1   --> A_1  D_1  S_1  
     e(  6 -  6) =      7.51627  eV     1   --> B_2  D_4  S_4  
     e(  7 -  7) =     15.20782  eV     1   --> A_2  D_2  S_2  
     e(  8 -  8) =     15.46516  eV     1   --> A_1  D_1  S_1  

 **************************************************************************

 **************************************************************************

                    xk=(   0.07366,   0.70711,   0.07366  )

     Band symmetry, C_2v (mm2)  point group:

     e(  1 -  1) =     -1.79137  eV     1   --> B_2  D_4  S_4  
     e(  2 -  2) =     -1.64293  eV     1   --> A_1  D_1  S_1  
     e(  3 -  3) =      2.71404  eV     1   --> B_2  D_4  S_4  
     e(  4 -  4) =      3.28451  eV     1   --> B_1  D_3  S_3  
     e(  5 -  5) =      6.84421  eV     1   --> A_1  D_1  S_1  
     e(  6 -  6) =      7.57285  eV     1   --> B_2  D_4  S_4  
     e(  7 -  7) =     15.16040  eV     1   --> A_2  D_2  S_2  
     e(  8 -  8) =     15.43220  eV     1   --> A_1  D_1  S_1  

 **************************************************************************

 **************************************************************************

                    xk=(   0.07660,   0.70711,   0.07660  )

     Band symmetry, C_2v (mm2)  point group:

     e(  1 -  1) =     -1.79575  eV     1   --> B_2  D_4  S_4  
     e(  2 -  2) =     -1.63467  eV     1   --> A_1  D_1  S_1  
     e(  3 -  3) =      2.68257  eV     1   --> B_2  D_4  S_4  
     e(  4 -  4) =      3.29056  eV     1   --> B_1  D_3  S_3  
     e(  5 -  5) =      6.85116  eV     1   --> A_1  D_1  S_1  
     e(  6 -  6) =      7.63078  eV     1   --> B_2  D_4  S_4  
     e(  7 -  7) =     15.11239  eV     1   --> A_2  D_2  S_2  
     e(  8 -  8) =     15.39857  eV     1   --> A_1  D_1  S_1  

 **************************************************************************

 **************************************************************************

                    xk=(   0.07955,   0.70711,   0.07955  )

     Band symmetry, C_2v (mm2)  point group:

     e(  1 -  1) =     -1.80040  eV     1   --> B_2  D_4  S_4  
     e(  2 -  2) =     -1.62609  eV     1   --> A_1  D_1  S_1  
     e(  3 -  3) =      2.65092  eV     1   --> B_2  D_4  S_4  
     e(  4 -  4) =      3.29684  eV     1   --> B_1  D_3  S_3  
     e(  5 -  5) =      6.85838  eV     1   --> A_1  D_1  S_1  
     e(  6 -  6) =      7.68999  eV     1   --> B_2  D_4  S_4  
     e(  7 -  7) =     15.06386  eV     1   --> A_2  D_2  S_2  
     e(  8 -  8) =     15.36430  eV     1   --> A_1  D_1  S_1  

 **************************************************************************

 **************************************************************************

                    xk=(   0.08250,   0.70711,   0.08250  )

     Band symmetry, C_2v (mm2)  point group:

     e(  1 -  1) =     -1.80531  eV     1   --> B_2  D_4  S_4  
     e(  2 -  2) =     -1.61718  eV     1   --> A_1  D_1  S_1  
     e(  3 -  3) =      2.61916  eV     1   --> B_2  D_4  S_4  
     e(  4 -  4) =      3.30334  eV     1   --> B_1  D_3  S_3  
     e(  5 -  5) =      6.86586  eV     1   --> A_1  D_1  S_1  
     e(  6 -  6) =      7.75045  eV     1   --> B_2  D_4  S_4  
     e(  7 -  7) =     15.01484  eV     1   --> A_2  D_2  S_2  
     e(  8 -  8) =     15.32943  eV     1   --> A_1  D_1  S_1  

 **************************************************************************

 **************************************************************************

                    xk=(   0.08544,   0.70711,   0.08544  )

     Band symmetry, C_2v (mm2)  point group:

     e(  1 -  1) =     -1.81049  eV     1   --> B_2  D_4  S_4  
     e(  2 -  2) =     -1.60795  eV     1   --> A_1  D_1  S_1  
     e(  3 -  3) =      2.58734  eV     1   --> B_2  D_4  S_4  
     e(  4 -  4) =      3.31008  eV     1   --> B_1  D_3  S_3  
     e(  5 -  5) =      6.87361  eV     1   --> A_1  D_1  S_1  
     e(  6 -  6) =      7.81209  eV     1   --> B_2  D_4  S_4  
     e(  7 -  7) =     14.96540  eV     1   --> A_2  D_2  S_2  
     e(  8 -  8) =     15.29400  eV     1   --> A_1  D_1  S_1  

 **************************************************************************

 **************************************************************************

                    xk=(   0.08839,   0.70711,   0.08839  )

     Band symmetry, C_2v (mm2)  point group:

     e(  1 -  1) =     -1.81596  eV     1   --> B_2  D_4  S_4  
     e(  2 -  2) =     -1.59839  eV     1   --> A_1  D_1  S_1  
     e(  3 -  3) =      2.55553  eV     1   --> B_2  D_4  S_4  
     e(  4 -  4) =      3.31705  eV     1   --> B_1  D_3  S_3  
     e(  5 -  5) =      6.88162  eV     1   --> A_1  D_1  S_1  
     e(  6 -  6) =      7.87486  eV     1   --> B_2  D_4  S_4  
     e(  7 -  7) =     14.91557  eV     1   --> A_2  D_2  S_2  
     e(  8 -  8) =     15.25806  eV     1   --> A_1  D_1  S_1  

 **************************************************************************

 **************************************************************************

                    xk=(   0.09133,   0.70711,   0.09133  )

     Band symmetry, C_2v (mm2)  point group:

     e(  1 -  1) =     -1.82173  eV     1   --> B_2  D_4  S_4  
     e(  2 -  2) =     -1.58852  eV     1   --> A_1  D_1  S_1  
     e(  3 -  3) =      2.52377  eV     1   --> B_2  D_4  S_4  
     e(  4 -  4) =      3.32425  eV     1   --> B_1  D_3  S_3  
     e(  5 -  5) =      6.88990  eV     1   --> A_1  D_1  S_1  
     e(  6 -  6) =      7.93872  eV     1   --> B_2  D_4  S_4  
     e(  7 -  7) =     14.86541  eV     1   --> A_2  D_2  S_2  
     e(  8 -  8) =     15.22163  eV     1   --> A_1  D_1  S_1  

 **************************************************************************

 **************************************************************************

                    xk=(   0.09428,   0.70711,   0.09428  )

     Band symmetry, C_2v (mm2)  point group:

     e(  1 -  1) =     -1.82779  eV     1   --> B_2  D_4  S_4  
     e(  2 -  2) =     -1.57832  eV     1   --> A_1  D_1  S_1  
     e(  3 -  3) =      2.49213  eV     1   --> B_2  D_4  S_4  
     e(  4 -  4) =      3.33168  eV     1   --> B_1  D_3  S_3  
     e(  5 -  5) =      6.89845  eV     1   --> A_1  D_1  S_1  
     e(  6 -  6) =      8.00362  eV     1   --> B_2  D_4  S_4  
     e(  7 -  7) =     14.81495  eV     1   --> A_2  D_2  S_2  
     e(  8 -  8) =     15.18476  eV     1   --> A_1  D_1  S_1  

 **************************************************************************

 **************************************************************************

                    xk=(   0.09723,   0.70711,   0.09723  )

     Band symmetry, C_2v (mm2)  point group:

     e(  1 -  1) =     -1.83418  eV     1   --> B_2  D_4  S_4  
     e(  2 -  2) =     -1.56779  eV     1   --> A_1  D_1  S_1  
     e(  3 -  3) =      2.46066  eV     1   --> B_2  D_4  S_4  
     e(  4 -  4) =      3.33934  eV     1   --> B_1  D_3  S_3  
     e(  5 -  5) =      6.90725  eV     1   --> A_1  D_1  S_1  
     e(  6 -  6) =      8.06952  eV     1   --> B_2  D_4  S_4  
     e(  7 -  7) =     14.76422  eV     1   --> A_2  D_2  S_2  
     e(  8 -  8) =     15.14746  eV     1   --> A_1  D_1  S_1  

 **************************************************************************

 **************************************************************************

                    xk=(   0.10017,   0.70711,   0.10017  )

     Band symmetry, C_2v (mm2)  point group:

     e(  1 -  1) =     -1.84089  eV     1   --> B_2  D_4  S_4  
     e(  2 -  2) =     -1.55695  eV     1   --> A_1  D_1  S_1  
     e(  3 -  3) =      2.42939  eV     1   --> B_2  D_4  S_4  
     e(  4 -  4) =      3.34722  eV     1   --> B_1  D_3  S_3  
     e(  5 -  5) =      6.91632  eV     1   --> A_1  D_1  S_1  
     e(  6 -  6) =      8.13638  eV     1   --> B_2  D_4  S_4  
     e(  7 -  7) =     14.71326  eV     1   --> A_2  D_2  S_2  
     e(  8 -  8) =     15.10978  eV     1   --> A_1  D_1  S_1  

 **************************************************************************

 **************************************************************************

                    xk=(   0.10312,   0.70711,   0.10312  )

     Band symmetry, C_2v (mm2)  point group:

     e(  1 -  1) =     -1.84793  eV     1   --> B_2  D_4  S_4  
     e(  2 -  2) =     -1.54578  eV     1   --> A_1  D_1  S_1  
     e(  3 -  3) =      2.39838  eV     1   --> B_2  D_4  S_4  
     e(  4 -  4) =      3.35533  eV     1   --> B_1  D_3  S_3  
     e(  5 -  5) =      6.92565  eV     1   --> A_1  D_1  S_1  
     e(  6 -  6) =      8.20417  eV     1   --> B_2  D_4  S_4  
     e(  7 -  7) =     14.66210  eV     1   --> A_2  D_2  S_2  
     e(  8 -  8) =     15.07175  eV     1   --> A_1  D_1  S_1  

 **************************************************************************

 **************************************************************************

                    xk=(   0.10607,   0.70711,   0.10607  )

     Band symmetry, C_2v (mm2)  point group:

     e(  1 -  1) =     -1.85532  eV     1   --> B_2  D_4  S_4  
     e(  2 -  2) =     -1.53429  eV     1   --> A_1  D_1  S_1  
     e(  3 -  3) =      2.36768  eV     1   --> B_2  D_4  S_4  
     e(  4 -  4) =      3.36367  eV     1   --> B_1  D_3  S_3  
     e(  5 -  5) =      6.93524  eV     1   --> A_1  D_1  S_1  
     e(  6 -  6) =      8.27284  eV     1   --> B_2  D_4  S_4  
     e(  7 -  7) =     14.61077  eV     1   --> A_2  D_2  S_2  
     e(  8 -  8) =     15.03339  eV     1   --> A_1  D_1  S_1  

 **************************************************************************

 **************************************************************************

                    xk=(   0.10901,   0.70711,   0.10901  )

     Band symmetry, C_2v (mm2)  point group:

     e(  1 -  1) =     -1.86306  eV     1   --> B_2  D_4  S_4  
     e(  2 -  2) =     -1.52248  eV     1   --> A_1  D_1  S_1  
     e(  3 -  3) =      2.33731  eV     1   --> B_2  D_4  S_4  
     e(  4 -  4) =      3.37223  eV     1   --> B_1  D_3  S_3  
     e(  5 -  5) =      6.94508  eV     1   --> A_1  D_1  S_1  
     e(  6 -  6) =      8.34237  eV     1   --> B_2  D_4  S_4  
     e(  7 -  7) =     14.55929  eV     1   --> A_2  D_2  S_2  
     e(  8 -  8) =     14.99472  eV     1   --> A_1  D_1  S_1  

 **************************************************************************

 **************************************************************************

                    xk=(   0.11196,   0.70711,   0.11196  )

     Band symmetry, C_2v (mm2)  point group:

     e(  1 -  1) =     -1.87117  eV     1   --> B_2  D_4  S_4  
     e(  2 -  2) =     -1.51034  eV     1   --> A_1  D_1  S_1  
     e(  3 -  3) =      2.30733  eV     1   --> B_2  D_4  S_4  
     e(  4 -  4) =      3.38101  eV     1   --> B_1  D_3  S_3  
     e(  5 -  5) =      6.95519  eV     1   --> A_1  D_1  S_1  
     e(  6 -  6) =      8.41272  eV     1   --> B_2  D_4  S_4  
     e(  7 -  7) =     14.50769  eV     1   --> A_2  D_2  S_2  
     e(  8 -  8) =     14.95578  eV     1   --> A_1  D_1  S_1  

 **************************************************************************

 **************************************************************************

                    xk=(   0.11490,   0.70711,   0.11490  )

     Band symmetry, C_2v (mm2)  point group:

     e(  1 -  1) =     -1.87965  eV     1   --> B_2  D_4  S_4  
     e(  2 -  2) =     -1.49789  eV     1   --> A_1  D_1  S_1  
     e(  3 -  3) =      2.27778  eV     1   --> B_2  D_4  S_4  
     e(  4 -  4) =      3.39002  eV     1   --> B_1  D_3  S_3  
     e(  5 -  5) =      6.96555  eV     1   --> A_1  D_1  S_1  
     e(  6 -  6) =      8.48386  eV     1   --> B_2  D_4  S_4  
     e(  7 -  7) =     14.45599  eV     1   --> A_2  D_2  S_2  
     e(  8 -  8) =     14.91658  eV     1   --> A_1  D_1  S_1  

 **************************************************************************

 **************************************************************************

                    xk=(   0.11785,   0.70711,   0.11785  )

     Band symmetry, C_2v (mm2)  point group:

     e(  1 -  1) =     -1.88852  eV     1   --> B_2  D_4  S_4  
     e(  2 -  2) =     -1.48511  eV     1   --> A_1  D_1  S_1  
     e(  3 -  3) =      2.24868  eV     1   --> B_2  D_4  S_4  
     e(  4 -  4) =      3.39925  eV     1   --> B_1  D_3  S_3  
     e(  5 -  5) =      6.97617  eV     1   --> A_1  D_1  S_1  
     e(  6 -  6) =      8.55577  eV     1   --> B_2  D_4  S_4  
     e(  7 -  7) =     14.40421  eV     1   --> A_2  D_2  S_2  
     e(  8 -  8) =     14.87716  eV     1   --> A_1  D_1  S_1  

 **************************************************************************

 **************************************************************************

                    xk=(   0.12080,   0.70711,   0.12080  )

     Band symmetry, C_2v (mm2)  point group:

     e(  1 -  1) =     -1.89778  eV     1   --> B_2  D_4  S_4  
     e(  2 -  2) =     -1.47201  eV     1   --> A_1  D_1  S_1  
     e(  3 -  3) =      2.22007  eV     1   --> B_2  D_4  S_4  
     e(  4 -  4) =      3.40870  eV     1   --> B_1  D_3  S_3  
     e(  5 -  5) =      6.98705  eV     1   --> A_1  D_1  S_1  
     e(  6 -  6) =      8.62841  eV     1   --> B_2  D_4  S_4  
     e(  7 -  7) =     14.35238  eV     1   --> A_2  D_2  S_2  
     e(  8 -  8) =     14.83753  eV     1   --> A_1  D_1  S_1  

 **************************************************************************

 **************************************************************************

                    xk=(   0.12374,   0.70711,   0.12374  )

     Band symmetry, C_2v (mm2)  point group:

     e(  1 -  1) =     -1.90745  eV     1   --> B_2  D_4  S_4  
     e(  2 -  2) =     -1.45858  eV     1   --> A_1  D_1  S_1  
     e(  3 -  3) =      2.19199  eV     1   --> B_2  D_4  S_4  
     e(  4 -  4) =      3.41837  eV     1   --> B_1  D_3  S_3  
     e(  5 -  5) =      6.99818  eV     1   --> A_1  D_1  S_1  
     e(  6 -  6) =      8.70176  eV     1   --> B_2  D_4  S_4  
     e(  7 -  7) =     14.30050  eV     1   --> A_2  D_2  S_2  
     e(  8 -  8) =     14.79770  eV     1   --> A_1  D_1  S_1  

 **************************************************************************

 **************************************************************************

                    xk=(   0.12669,   0.70711,   0.12669  )

     Band symmetry, C_2v (mm2)  point group:

     e(  1 -  1) =     -1.91754  eV     1   --> B_2  D_4  S_4  
     e(  2 -  2) =     -1.44484  eV     1   --> A_1  D_1  S_1  
     e(  3 -  3) =      2.16447  eV     1   --> B_2  D_4  S_4  
     e(  4 -  4) =      3.42826  eV     1   --> B_1  D_3  S_3  
     e(  5 -  5) =      7.00956  eV     1   --> A_1  D_1  S_1  
     e(  6 -  6) =      8.77580  eV     1   --> B_2  D_4  S_4  
     e(  7 -  7) =     14.24861  eV     1   --> A_2  D_2  S_2  
     e(  8 -  8) =     14.75771  eV     1   --> A_1  D_1  S_1  

 **************************************************************************

 **************************************************************************

                    xk=(   0.12964,   0.70711,   0.12964  )

     Band symmetry, C_2v (mm2)  point group:

     e(  1 -  1) =     -1.92804  eV     1   --> B_2  D_4  S_4  
     e(  2 -  2) =     -1.43078  eV     1   --> A_1  D_1  S_1  
     e(  3 -  3) =      2.13754  eV     1   --> B_2  D_4  S_4  
     e(  4 -  4) =      3.43837  eV     1   --> B_1  D_3  S_3  
     e(  5 -  5) =      7.02119  eV     1   --> A_1  D_1  S_1  
     e(  6 -  6) =      8.85050  eV     1   --> B_2  D_4  S_4  
     e(  7 -  7) =     14.19670  eV     1   --> A_2  D_2  S_2  
     e(  8 -  8) =     14.71758  eV     1   --> A_1  D_1  S_1  

 **************************************************************************

 **************************************************************************

                    xk=(   0.13258,   0.70711,   0.13258  )

     Band symmetry, C_2v (mm2)  point group:

     e(  1 -  1) =     -1.93898  eV     1   --> B_2  D_4  S_4  
     e(  2 -  2) =     -1.41639  eV     1   --> A_1  D_1  S_1  
     e(  3 -  3) =      2.11122  eV     1   --> B_2  D_4  S_4  
     e(  4 -  4) =      3.44869  eV     1   --> B_1  D_3  S_3  
     e(  5 -  5) =      7.03307  eV     1   --> A_1  D_1  S_1  
     e(  6 -  6) =      8.92583  eV     1   --> B_2  D_4  S_4  
     e(  7 -  7) =     14.14481  eV     1   --> A_2  D_2  S_2  
     e(  8 -  8) =     14.67731  eV     1   --> A_1  D_1  S_1  

 **************************************************************************

 **************************************************************************

                    xk=(   0.13553,   0.70711,   0.13553  )

     Band symmetry, C_2v (mm2)  point group:

     e(  1 -  1) =     -1.95035  eV     1   --> B_2  D_4  S_4  
     e(  2 -  2) =     -1.40168  eV     1   --> A_1  D_1  S_1  
     e(  3 -  3) =      2.08554  eV     1   --> B_2  D_4  S_4  
[...]
     e(  8 -  8) =     11.03392  eV     1   --> A              

 **************************************************************************

 **************************************************************************

                    xk=(   0.35355,   0.70121,   0.00589  )

     Band symmetry, C_2  (2)    point group:

     e(  1 -  1) =     -1.64350  eV     1   --> A              
     e(  2 -  2) =     -1.53681  eV     1   --> B              
     e(  3 -  3) =      2.20555  eV     1   --> B              
     e(  4 -  4) =      2.28518  eV     1   --> A              
     e(  5 -  5) =     10.23964  eV     1   --> A              
     e(  6 -  6) =     10.31787  eV     1   --> B              
     e(  7 -  7) =     10.88828  eV     1   --> B              
     e(  8 -  8) =     10.97687  eV     1   --> A              

 **************************************************************************

 **************************************************************************

                    xk=(   0.35355,   0.70711,   0.00000  )

     zone border point and non-symmorphic group 
     symmetry decomposition not available

 **************************************************************************

 **************************************************************************

                    xk=(   0.34766,   0.70711,   0.00000  )

     zone border point and non-symmorphic group 
     symmetry decomposition not available

 **************************************************************************

 **************************************************************************

                    xk=(   0.34177,   0.70711,   0.00000  )

     zone border point and non-symmorphic group 
     symmetry decomposition not available

 **************************************************************************

 **************************************************************************

                    xk=(   0.33588,   0.70711,   0.00000  )

     zone border point and non-symmorphic group 
     symmetry decomposition not available

 **************************************************************************

 **************************************************************************

                    xk=(   0.32998,   0.70711,   0.00000  )

     zone border point and non-symmorphic group 
     symmetry decomposition not available

 **************************************************************************

 **************************************************************************

                    xk=(   0.32409,   0.70711,   0.00000  )

     zone border point and non-symmorphic group 
     symmetry decomposition not available

 **************************************************************************

 **************************************************************************

                    xk=(   0.31820,   0.70711,   0.00000  )

     zone border point and non-symmorphic group 
     symmetry decomposition not available

 **************************************************************************

 **************************************************************************

                    xk=(   0.31231,   0.70711,   0.00000  )

     zone border point and non-symmorphic group 
     symmetry decomposition not available

 **************************************************************************

 **************************************************************************

                    xk=(   0.30641,   0.70711,  -0.00000  )

     zone border point and non-symmorphic group 
     symmetry decomposition not available

 **************************************************************************

 **************************************************************************

                    xk=(   0.30052,   0.70711,  -0.00000  )

     zone border point and non-symmorphic group 
     symmetry decomposition not available

 **************************************************************************

 **************************************************************************

                    xk=(   0.29463,   0.70711,   0.00000  )

     zone border point and non-symmorphic group 
     symmetry decomposition not available

 **************************************************************************

 **************************************************************************

                    xk=(   0.28874,   0.70711,  -0.00000  )

     zone border point and non-symmorphic group 
     symmetry decomposition not available

 **************************************************************************

 **************************************************************************

                    xk=(   0.28284,   0.70711,   0.00000  )

     zone border point and non-symmorphic group 
     symmetry decomposition not available

 **************************************************************************

 **************************************************************************

                    xk=(   0.27695,   0.70711,   0.00000  )

     zone border point and non-symmorphic group 
     symmetry decomposition not available

 **************************************************************************

 **************************************************************************

                    xk=(   0.27106,   0.70711,   0.00000  )

     zone border point and non-symmorphic group 
     symmetry decomposition not available

 **************************************************************************

 **************************************************************************

                    xk=(   0.26517,   0.70711,   0.00000  )

     zone border point and non-symmorphic group 
     symmetry decomposition not available

 **************************************************************************

 **************************************************************************

                    xk=(   0.25927,   0.70711,   0.00000  )

     zone border point and non-symmorphic group 
     symmetry decomposition not available

 **************************************************************************

 **************************************************************************

                    xk=(   0.25338,   0.70711,  -0.00000  )

     zone border point and non-symmorphic group 
     symmetry decomposition not available

 **************************************************************************

 **************************************************************************

                    xk=(   0.24749,   0.70711,  -0.00000  )

     zone border point and non-symmorphic group 
     symmetry decomposition not available

 **************************************************************************

 **************************************************************************

                    xk=(   0.24159,   0.70711,  -0.00000  )

     zone border point and non-symmorphic group 
     symmetry decomposition not available

 **************************************************************************

 **************************************************************************

                    xk=(   0.23570,   0.70711,   0.00000  )

     zone border point and non-symmorphic group 
     symmetry decomposition not available

 **************************************************************************

 **************************************************************************

                    xk=(   0.22981,   0.70711,   0.00000  )

     zone border point and non-symmorphic group 
     symmetry decomposition not available

 **************************************************************************

 **************************************************************************

                    xk=(   0.22392,   0.70711,   0.00000  )

     zone border point and non-symmorphic group 
     symmetry decomposition not available

 **************************************************************************

 **************************************************************************

                    xk=(   0.21802,   0.70711,  -0.00000  )

     zone border point and non-symmorphic group 
     symmetry decomposition not available

 **************************************************************************

 **************************************************************************

                    xk=(   0.21213,   0.70711,   0.00000  )

     zone border point and non-symmorphic group 
     symmetry decomposition not available

 **************************************************************************

 **************************************************************************

                    xk=(   0.20624,   0.70711,  -0.00000  )

     zone border point and non-symmorphic group 
     symmetry decomposition not available

 **************************************************************************

 **************************************************************************

                    xk=(   0.20035,   0.70711,   0.00000  )

     zone border point and non-symmorphic group 
     symmetry decomposition not available

 **************************************************************************

 **************************************************************************

                    xk=(   0.19445,   0.70711,   0.00000  )

     zone border point and non-symmorphic group 
     symmetry decomposition not available

 **************************************************************************

 **************************************************************************

                    xk=(   0.18856,   0.70711,   0.00000  )

     zone border point and non-symmorphic group 
     symmetry decomposition not available

 **************************************************************************

 **************************************************************************

                    xk=(   0.18267,   0.70711,   0.00000  )

     zone border point and non-symmorphic group 
     symmetry decomposition not available

 **************************************************************************

 **************************************************************************

                    xk=(   0.17678,   0.70711,   0.00000  )

     zone border point and non-symmorphic group 
     symmetry decomposition not available

 **************************************************************************

 **************************************************************************

                    xk=(   0.17088,   0.70711,   0.00000  )

     zone border point and non-symmorphic group 
     symmetry decomposition not available

 **************************************************************************

 **************************************************************************

                    xk=(   0.16499,   0.70711,   0.00000  )

     zone border point and non-symmorphic group 
     symmetry decomposition not available

 **************************************************************************

 **************************************************************************

                    xk=(   0.15910,   0.70711,  -0.00000  )

     zone border point and non-symmorphic group 
     symmetry decomposition not available

 **************************************************************************

 **************************************************************************

                    xk=(   0.15321,   0.70711,  -0.00000  )

     zone border point and non-symmorphic group 
     symmetry decomposition not available

 **************************************************************************

 **************************************************************************

                    xk=(   0.14731,   0.70711,   0.00000  )

     zone border point and non-symmorphic group 
     symmetry decomposition not available

 **************************************************************************

 **************************************************************************

                    xk=(   0.14142,   0.70711,   0.00000  )

     zone border point and non-symmorphic group 
     symmetry decomposition not available

 **************************************************************************

 **************************************************************************

                    xk=(   0.13553,   0.70711,   0.00000  )

     zone border point and non-symmorphic group 
     symmetry decomposition not available

 **************************************************************************

 **************************************************************************

                    xk=(   0.12964,   0.70711,   0.00000  )

     zone border point and non-symmorphic group 
     symmetry decomposition not available

 **************************************************************************

 **************************************************************************

                    xk=(   0.12374,   0.70711,  -0.00000  )

     zone border point and non-symmorphic group 
     symmetry decomposition not available

 **************************************************************************

 **************************************************************************

                    xk=(   0.11785,   0.70711,   0.00000  )

     zone border point and non-symmorphic group 
     symmetry decomposition not available

 **************************************************************************

 **************************************************************************

                    xk=(   0.11196,   0.70711,   0.00000  )

     zone border point and non-symmorphic group 
     symmetry decomposition not available

 **************************************************************************

 **************************************************************************

                    xk=(   0.10607,   0.70711,   0.00000  )

     zone border point and non-symmorphic group 
     symmetry decomposition not available

 **************************************************************************

 **************************************************************************

                    xk=(   0.10017,   0.70711,   0.00000  )

     zone border point and non-symmorphic group 
     symmetry decomposition not available

 **************************************************************************

 **************************************************************************

                    xk=(   0.09428,   0.70711,   0.00000  )

     zone border point and non-symmorphic group 
     symmetry decomposition not available

 **************************************************************************

 **************************************************************************

                    xk=(   0.08839,   0.70711,   0.00000  )

     zone border point and non-symmorphic group 
     symmetry decomposition not available

 **************************************************************************

 **************************************************************************

                    xk=(   0.08250,   0.70711,   0.00000  )

     zone border point and non-symmorphic group 
     symmetry decomposition not available

 **************************************************************************

 **************************************************************************

                    xk=(   0.07660,   0.70711,  -0.00000  )

     zone border point and non-symmorphic group 
     symmetry decomposition not available

 **************************************************************************

 **************************************************************************

                    xk=(   0.07071,   0.70711,   0.00000  )

     zone border point and non-symmorphic group 
     symmetry decomposition not available

 **************************************************************************

 **************************************************************************

                    xk=(   0.06482,   0.70711,  -0.00000  )

     zone border point and non-symmorphic group 
     symmetry decomposition not available

 **************************************************************************

 **************************************************************************

                    xk=(   0.05893,   0.70711,   0.00000  )

     zone border point and non-symmorphic group 
     symmetry decomposition not available

 **************************************************************************

 **************************************************************************

                    xk=(   0.05303,   0.70711,   0.00000  )

     zone border point and non-symmorphic group 
     symmetry decomposition not available

 **************************************************************************

 **************************************************************************

                    xk=(   0.04714,   0.70711,   0.00000  )

     zone border point and non-symmorphic group 
     symmetry decomposition not available

 **************************************************************************

 **************************************************************************

                    xk=(   0.04125,   0.70711,   0.00000  )

     zone border point and non-symmorphic group 
     symmetry decomposition not available

 **************************************************************************

 **************************************************************************

                    xk=(   0.03536,   0.70711,   0.00000  )

     zone border point and non-symmorphic group 
     symmetry decomposition not available

 **************************************************************************

 **************************************************************************

                    xk=(   0.02946,   0.70711,  -0.00000  )

     zone border point and non-symmorphic group 
     symmetry decomposition not available

 **************************************************************************

 **************************************************************************

                    xk=(   0.02357,   0.70711,   0.00000  )

     zone border point and non-symmorphic group 
     symmetry decomposition not available

 **************************************************************************

 **************************************************************************

                    xk=(   0.01768,   0.70711,   0.00000  )

     zone border point and non-symmorphic group 
     symmetry decomposition not available

 **************************************************************************

 **************************************************************************

                    xk=(   0.01179,   0.70711,   0.00000  )

     zone border point and non-symmorphic group 
     symmetry decomposition not available

 **************************************************************************

 **************************************************************************

                    xk=(   0.00589,   0.70711,   0.00000  )

     zone border point and non-symmorphic group 
     symmetry decomposition not available

 **************************************************************************

 **************************************************************************

                    xk=(   0.00000,   0.70711,   0.00000  )

     zone border point and non-symmorphic group 
     symmetry decomposition not available

 **************************************************************************
 
     BANDS        :      7.08s CPU      7.81s WALL

 
   This run was terminated on:  17:56:52  29Nov2020            

=------------------------------------------------------------------------------=
   JOB DONE.
=------------------------------------------------------------------------------=
