mpijob CMD    : mpirun -f /tmp/mpiexec.params.k050801.100859
mpijob PARAMS : -d /home/k0508/k050801/qeirreps/ver_5/qeirreps/reference/Si_nonsoc
        r1i6n18 24 omplace -nt 1 "/home/k0508/k050801/qe-6.6/bin/pw.x"

SGI MPT Placement option
--------------------------
omplace -nt 1

Node   MPI
------------
r1i6n18 24


     Program PWSCF v.6.6 starts on 29Nov2020 at 17:56:21 

     This program is part of the open-source Quantum ESPRESSO suite
     for quantum simulation of materials; please cite
         "P. Giannozzi et al., J. Phys.:Condens. Matter 21 395502 (2009);
         "P. Giannozzi et al., J. Phys.:Condens. Matter 29 465901 (2017);
          URL http://www.quantum-espresso.org", 
     in publications or presentations arising from this work. More details at
     http://www.quantum-espresso.org/quote

     Parallel version (MPI), running on    24 processors

     MPI processes distributed on     1 nodes
     R & G space division:  proc/nbgrp/npool/nimage =      24
     Fft bands division:     nmany     =       1
     Waiting for input...
     Reading input from standard input

     Current dimensions of program PWSCF are:
     Max number of different atomic species (ntypx) = 10
     Max number of k-points (npk) =  40000
     Max angular momentum in pseudopotentials (lmaxx) =  3

     Subspace diagonalization in iterative solution of the eigenvalue problem:
     a serial algorithm will be used

     Message from routine setup:
     using ibrav=0 with symmetry is DISCOURAGED, use correct ibrav instead
 
     Parallelization info
     --------------------
     sticks:   dense  smooth     PW     G-vecs:    dense   smooth      PW
     Min          61      61     18                 1553     1553     241
     Max          62      62     19                 1556     1556     244
     Sum        1483    1483    433                37309    37309    5817
 


     bravais-lattice index     =            0
     lattice parameter (alat)  =       7.3086  a.u.
     unit-cell volume          =     276.0515 (a.u.)^3
     number of atoms/cell      =            2
     number of atomic types    =            1
     number of electrons       =         8.00
     number of Kohn-Sham states=            8
     kinetic-energy cutoff     =     100.0000  Ry
     charge density cutoff     =     400.0000  Ry
     convergence threshold     =      1.0E-08
     mixing beta               =       0.3000
     number of iterations used =            8  plain     mixing
     Exchange-correlation= PBE
                           (   1   4   3   4   0   0   0)

     celldm(1)=   7.308615  celldm(2)=   0.000000  celldm(3)=   0.000000
     celldm(4)=   0.000000  celldm(5)=   0.000000  celldm(6)=   0.000000

     crystal axes: (cart. coord. in units of alat)
               a(1) = (   0.000000   0.707107   0.707107 )  
               a(2) = (   0.707107   0.000000   0.707107 )  
               a(3) = (   0.707107   0.707107   0.000000 )  

     reciprocal axes: (cart. coord. in units 2 pi/alat)
               b(1) = ( -0.707107  0.707107  0.707107 )  
               b(2) = (  0.707107 -0.707107  0.707107 )  
               b(3) = (  0.707107  0.707107 -0.707107 )  


     PseudoPot. # 1 for Si read from file:
     ../../pseudo/nonsoc/Si.upf
     MD5 check sum: 02fab3f35e82123ef5bf1cb05d5b1a5e
     Pseudo is Norm-conserving + core correction, Zval =  4.0
     Generated using ONCVPSP code by D. R. Hamann
     Using radial grid of 1510 points,  6 beta functions with: 
                l(1) =   0
                l(2) =   0
                l(3) =   1
                l(4) =   1
                l(5) =   2
                l(6) =   2

     atomic species   valence    mass     pseudopotential
        Si             4.00    28.08550     Si( 1.00)

     48 Sym. Ops., with inversion, found (36 have fractional translation)



   Cartesian axes

     site n.     atom                  positions (alat units)
         1           Si  tau(   1) = (   0.8838835   0.8838835   0.8838835  )
         2           Si  tau(   2) = (   0.5303301   0.5303301   0.5303301  )

     number of k points=    29  Methfessel-Paxton smearing, width (Ry)=  0.0100
                       cart. coord. in units 2pi/alat
        k(    1) = (   0.0000000   0.0000000   0.0000000), wk =   0.0039062
        k(    2) = (   0.0883883   0.0883883  -0.0883883), wk =   0.0312500
        k(    3) = (   0.1767767   0.1767767  -0.1767767), wk =   0.0312500
        k(    4) = (   0.2651650   0.2651650  -0.2651650), wk =   0.0312500
        k(    5) = (  -0.3535534  -0.3535534   0.3535534), wk =   0.0156250
        k(    6) = (   0.1767767   0.0000000   0.0000000), wk =   0.0234375
        k(    7) = (   0.2651650   0.0883883  -0.0883883), wk =   0.0937500
        k(    8) = (   0.3535534   0.1767767  -0.1767767), wk =   0.0937500
        k(    9) = (  -0.2651650  -0.4419417   0.4419417), wk =   0.0937500
        k(   10) = (  -0.1767767  -0.3535534   0.3535534), wk =   0.0937500
        k(   11) = (  -0.0883883  -0.2651650   0.2651650), wk =   0.0937500
        k(   12) = (   0.0000000  -0.1767767   0.1767767), wk =   0.0468750
        k(   13) = (   0.3535534   0.0000000   0.0000000), wk =   0.0234375
        k(   14) = (   0.4419417   0.0883883  -0.0883883), wk =   0.0937500
        k(   15) = (  -0.1767767  -0.5303301   0.5303301), wk =   0.0937500
        k(   16) = (  -0.0883883  -0.4419417   0.4419417), wk =   0.0937500
        k(   17) = (   0.0000000  -0.3535534   0.3535534), wk =   0.0468750
        k(   18) = (   0.5303301   0.0000000   0.0000000), wk =   0.0234375
        k(   19) = (  -0.0883883  -0.6187184   0.6187184), wk =   0.0937500
        k(   20) = (   0.0000000  -0.5303301   0.5303301), wk =   0.0468750
        k(   21) = (  -0.7071068   0.0000000   0.0000000), wk =   0.0117188
        k(   22) = (   0.3535534   0.1767767   0.0000000), wk =   0.0937500
        k(   23) = (  -0.2651650  -0.4419417   0.6187184), wk =   0.1875000
        k(   24) = (  -0.1767767  -0.3535534   0.5303301), wk =   0.0937500
        k(   25) = (  -0.1767767  -0.5303301   0.7071068), wk =   0.0937500
        k(   26) = (  -0.0883883  -0.4419417   0.6187184), wk =   0.1875000
        k(   27) = (   0.0000000  -0.3535534   0.5303301), wk =   0.0937500
        k(   28) = (  -0.7071068   0.1767767   0.0000000), wk =   0.0468750
        k(   29) = (  -0.7071068   0.3535534   0.0000000), wk =   0.0234375

     Dense  grid:    37309 G-vectors     FFT dimensions: (  48,  48,  48)

     Estimated max dynamical RAM per process >       3.50 MB

     Estimated total dynamical RAM >      83.92 MB

     Initial potential from superposition of free atoms

     starting charge    7.99877, renormalised to    8.00000
     Starting wfcs are    8 randomized atomic wfcs

     total cpu time spent up to now is        0.5 secs

     Self-consistent Calculation

     iteration #  1     ecut=   100.00 Ry     beta= 0.30
     Davidson diagonalization with overlap
     ethr =  1.00E-02,  avg # of iterations =  4.5

     Threshold (ethr) on eigenvalues was too large:
     Diagonalizing with lowered threshold

     Davidson diagonalization with overlap
     ethr =  6.33E-04,  avg # of iterations =  1.9

     total cpu time spent up to now is        1.0 secs

     total energy              =     -16.92880137 Ry
     estimated scf accuracy    <       0.05413770 Ry

     iteration #  2     ecut=   100.00 Ry     beta= 0.30
     Davidson diagonalization with overlap
     ethr =  6.77E-04,  avg # of iterations =  1.0

     total cpu time spent up to now is        1.2 secs

     total energy              =     -16.92380598 Ry
     estimated scf accuracy    <       0.02304144 Ry

     iteration #  3     ecut=   100.00 Ry     beta= 0.30
     Davidson diagonalization with overlap
     ethr =  2.88E-04,  avg # of iterations =  1.2

     total cpu time spent up to now is        1.3 secs

     total energy              =     -16.92496477 Ry
     estimated scf accuracy    <       0.00029137 Ry

     iteration #  4     ecut=   100.00 Ry     beta= 0.30
     Davidson diagonalization with overlap
     ethr =  3.64E-06,  avg # of iterations =  5.2

     total cpu time spent up to now is        1.6 secs

     total energy              =     -16.92500292 Ry
     estimated scf accuracy    <       0.00001409 Ry

     iteration #  5     ecut=   100.00 Ry     beta= 0.30
     Davidson diagonalization with overlap
     ethr =  1.76E-07,  avg # of iterations =  1.5

     total cpu time spent up to now is        1.7 secs

     total energy              =     -16.92500409 Ry
     estimated scf accuracy    <       0.00000021 Ry

     iteration #  6     ecut=   100.00 Ry     beta= 0.30
     Davidson diagonalization with overlap
     ethr =  2.64E-09,  avg # of iterations =  3.1

     total cpu time spent up to now is        1.9 secs

     total energy              =     -16.92500428 Ry
     estimated scf accuracy    <       0.00000013 Ry

     iteration #  7     ecut=   100.00 Ry     beta= 0.30
     Davidson diagonalization with overlap
     ethr =  1.64E-09,  avg # of iterations =  1.8

     total cpu time spent up to now is        2.1 secs

     End of self-consistent calculation

          k = 0.0000 0.0000 0.0000 (  4645 PWs)   bands (ev):

    -5.8092   6.0089   6.0089   6.0089   8.5556   8.5556   8.5556   9.1059

          k = 0.0884 0.0884-0.0884 (  4678 PWs)   bands (ev):

    -5.6089   4.4129   5.7253   5.7253   8.4370   8.9718   8.9718  10.5163

          k = 0.1768 0.1768-0.1768 (  4669 PWs)   bands (ev):

    -5.0251   2.1163   5.2613   5.2613   7.9533   9.4913   9.4913  12.7387

          k = 0.2652 0.2652-0.2652 (  4678 PWs)   bands (ev):

    -4.1514   0.1323   4.9378   4.9378   7.5892   9.4571   9.4571  13.8429

          k =-0.3536-0.3536 0.3536 (  4626 PWs)   bands (ev):

    -3.5328  -0.8651   4.8269   4.8269   7.4611   9.3544   9.3544  13.7108

          k = 0.1768 0.0000 0.0000 (  4673 PWs)   bands (ev):

    -5.5414   4.6503   5.2200   5.2200   8.0165   9.6725   9.6725  10.2012

          k = 0.2652 0.0884-0.0884 (  4672 PWs)   bands (ev):

    -5.0818   2.7962   4.7168   4.7798   8.1476   9.6174  10.4289  10.7468

          k = 0.3536 0.1768-0.1768 (  4677 PWs)   bands (ev):

    -4.2840   0.7747   4.1957   4.4514   8.2298   9.5911  10.4454  11.4470

          k =-0.2652-0.4419 0.4419 (  4650 PWs)   bands (ev):

    -3.4459  -0.6549   3.7585   4.4733   8.1630   9.4919  10.0984  13.3075

          k =-0.1768-0.3536 0.3536 (  4662 PWs)   bands (ev):

    -3.6829  -0.2939   3.5834   4.7628   8.3102   9.6133   9.8678  13.8262

          k =-0.0884-0.2652 0.2652 (  4669 PWs)   bands (ev):

    -4.5837   1.4208   3.7381   5.2448   8.6511   9.6617   9.8416  12.2094

          k = 0.0000-0.1768 0.1768 (  4683 PWs)   bands (ev):

    -5.2792   3.3276   4.4165   5.7177   8.9603   9.1079   9.3361  11.4221

          k = 0.3536 0.0000 0.0000 (  4664 PWs)   bands (ev):

    -4.7477   2.4821   4.1565   4.1565   7.1552   9.1410  11.6905  11.6905

          k = 0.4419 0.0884-0.0884 (  4666 PWs)   bands (ev):

    -4.0518   1.0857   3.3902   3.8431   7.3759   8.9095  11.9075  12.2093

          k =-0.1768-0.5303 0.5303 (  4645 PWs)   bands (ev):

    -3.1477  -0.3216   2.5422   3.8450   7.5472  10.4397  11.6428  11.8808

          k =-0.0884-0.4419 0.4419 (  4653 PWs)   bands (ev):

    -2.9508  -0.5713   2.0949   4.1564   7.8603  11.4069  11.4447  12.8845

          k = 0.0000-0.3536 0.3536 (  4672 PWs)   bands (ev):

    -3.8070   0.5620   2.3360   4.7031   8.4392  10.7467  11.0930  12.0336

          k = 0.5303 0.0000 0.0000 (  4672 PWs)   bands (ev):

    -3.4603   0.2888   3.4518   3.4518   6.6561   7.5835  13.9352  13.9352

          k =-0.0884-0.6187 0.6187 (  4669 PWs)   bands (ev):

    -2.5817  -0.7772   2.6467   3.3765   6.9375   7.9918  14.1731  14.2252

          k = 0.0000-0.5303 0.5303 (  4660 PWs)   bands (ev):

    -2.1590  -1.1621   1.8050   3.6288   7.2404  10.1193  13.3752  14.0674

          k =-0.7071 0.0000 0.0000 (  4720 PWs)   bands (ev):

    -1.7442  -1.7442   3.2101   3.2101   6.7586   6.7586  15.9148  15.9148

          k = 0.3536 0.1768 0.0000 (  4681 PWs)   bands (ev):

    -4.5056   1.7329   3.3529   4.6051   8.4468   9.8207  10.2146  11.4432

          k =-0.2652-0.4419 0.6187 (  4660 PWs)   bands (ev):

    -3.6369   0.2141   2.7484   4.1175   8.8680   9.5333  10.9809  11.8829

          k =-0.1768-0.3536 0.5303 (  4638 PWs)   bands (ev):

    -3.0034  -0.7047   2.6168   3.8945   9.0233   9.1551  11.8483  13.0773

          k =-0.1768-0.5303 0.7071 (  4641 PWs)   bands (ev):

    -3.2671   0.0736   2.7170   3.3091   7.9612   8.6661  11.6860  13.8872

          k =-0.0884-0.4419 0.6187 (  4656 PWs)   bands (ev):

    -2.4144  -0.8743   2.0372   3.1131   8.4013  10.2780  11.2121  13.3508

          k = 0.0000-0.3536 0.5303 (  4659 PWs)   bands (ev):

    -2.7578  -0.5166   1.8749   3.4798   8.8701  10.5202  11.1689  12.9667

          k =-0.7071 0.1768 0.0000 (  4668 PWs)   bands (ev):

    -1.6706  -1.6706   2.6658   2.6658   7.9926   7.9926  13.7507  13.7507

          k =-0.7071 0.3536 0.0000 (  4648 PWs)   bands (ev):

    -1.5899  -1.5899   2.2443   2.2443  10.2828  10.2828  10.9273  10.9273

     the Fermi energy is     6.5564 ev

!    total energy              =     -16.92500429 Ry
     estimated scf accuracy    <          1.9E-09 Ry
     smearing contrib. (-TS)   =       0.00001458 Ry
     internal energy E=F+TS    =     -16.92501887 Ry

     The total energy is F=E-TS. E is the sum of the following terms:
     one-electron contribution =       4.79796002 Ry
     hartree contribution      =       1.11493704 Ry
     xc contribution           =      -6.16042872 Ry
     ewald contribution        =     -16.67748721 Ry

     convergence has been achieved in   7 iterations

     Forces acting on atoms (cartesian axes, Ry/au):

     atom    1 type  1   force =     0.00000000   -0.00000000   -0.00000000
     atom    2 type  1   force =    -0.00000000    0.00000000    0.00000000

     Total force =     0.000000     Total SCF correction =     0.000000


     Computing stress (Cartesian axis) and pressure

          total   stress  (Ry/bohr**3)                   (kbar)     P=       -0.27
  -0.00000183  -0.00000000  -0.00000000           -0.27       -0.00       -0.00
  -0.00000000  -0.00000183  -0.00000000           -0.00       -0.27       -0.00
  -0.00000000  -0.00000000  -0.00000183           -0.00       -0.00       -0.27


     Writing output data file /work/k0508/k050801/Si_ns/scf/Si.save/
 
     init_run     :      0.10s CPU      0.27s WALL (       1 calls)
     electrons    :      1.46s CPU      1.61s WALL (       1 calls)
     forces       :      0.02s CPU      0.02s WALL (       1 calls)
     stress       :      0.05s CPU      0.05s WALL (       1 calls)

     Called by init_run:
     wfcinit      :      0.08s CPU      0.21s WALL (       1 calls)
     potinit      :      0.00s CPU      0.02s WALL (       1 calls)
     hinit0       :      0.01s CPU      0.02s WALL (       1 calls)

     Called by electrons:
     c_bands      :      1.20s CPU      1.28s WALL (       8 calls)
     sum_band     :      0.20s CPU      0.21s WALL (       8 calls)
     v_of_rho     :      0.02s CPU      0.02s WALL (       8 calls)
     mix_rho      :      0.00s CPU      0.00s WALL (       8 calls)

     Called by c_bands:
     init_us_2    :      0.03s CPU      0.03s WALL (     551 calls)
     cegterg      :      1.06s CPU      1.11s WALL (     232 calls)

     Called by *egterg:
     cdiaghg      :      0.07s CPU      0.17s WALL (     788 calls)
     h_psi        :      0.99s CPU      1.05s WALL (     846 calls)
     g_psi        :      0.00s CPU      0.00s WALL (     585 calls)

     Called by h_psi:
     h_psi:calbec :      0.04s CPU      0.04s WALL (     846 calls)
     vloc_psi     :      0.93s CPU      0.98s WALL (     846 calls)
     add_vuspsi   :      0.01s CPU      0.02s WALL (     846 calls)

     General routines
     calbec       :      0.04s CPU      0.05s WALL (     991 calls)
     fft          :      0.02s CPU      0.03s WALL (     105 calls)
     ffts         :      0.00s CPU      0.00s WALL (       8 calls)
     fftw         :      1.05s CPU      1.10s WALL (   11744 calls)
 
     Parallel routines
     fft_scatt_xy :      0.07s CPU      0.08s WALL (   11857 calls)
     fft_scatt_yz :      0.61s CPU      0.64s WALL (   11857 calls)
 
     PWSCF        :      1.76s CPU      2.40s WALL

 
   This run was terminated on:  17:56:23  29Nov2020            

=------------------------------------------------------------------------------=
   JOB DONE.
=------------------------------------------------------------------------------=
