mpijob CMD    : mpirun -f /tmp/mpiexec.params.k050801.108564
mpijob PARAMS : -d /home/k0508/k050801/qeirreps/ver_5/qeirreps/reference/Si_soc
        r1i6n18 24 omplace -nt 1 "/home/k0508/k050801/qe-6.6/bin/pw.x"

SGI MPT Placement option
--------------------------
omplace -nt 1

Node   MPI
------------
r1i6n18 24


     Program PWSCF v.6.6 starts on 30Nov2020 at  1:45:23 

     This program is part of the open-source Quantum ESPRESSO suite
     for quantum simulation of materials; please cite
         "P. Giannozzi et al., J. Phys.:Condens. Matter 21 395502 (2009);
         "P. Giannozzi et al., J. Phys.:Condens. Matter 29 465901 (2017);
          URL http://www.quantum-espresso.org", 
     in publications or presentations arising from this work. More details at
     http://www.quantum-espresso.org/quote

     Parallel version (MPI), running on    24 processors

     MPI processes distributed on     1 nodes
     R & G space division:  proc/nbgrp/npool/nimage =      24
     Fft bands division:     nmany     =       1
     Waiting for input...
     Reading input from standard input

     Current dimensions of program PWSCF are:
     Max number of different atomic species (ntypx) = 10
     Max number of k-points (npk) =  40000
     Max angular momentum in pseudopotentials (lmaxx) =  3

     Atomic positions and unit cell read from directory:
     /work/k0508/k050801/Si/rep_Bilbao/Si.save/
     Atomic positions from file used, from input discarded
 

     Subspace diagonalization in iterative solution of the eigenvalue problem:
     a serial algorithm will be used

     Message from routine setup:
     using ibrav=0 with symmetry is DISCOURAGED, use correct ibrav instead
 
     Parallelization info
     --------------------
     sticks:   dense  smooth     PW     G-vecs:    dense   smooth      PW
     Min          61      61     17                 1553     1553     238
     Max          62      62     18                 1556     1556     242
     Sum        1483    1483    421                37309    37309    5769
 


     bravais-lattice index     =            0
     lattice parameter (alat)  =       7.3086  a.u.
     unit-cell volume          =     276.0515 (a.u.)^3
     number of atoms/cell      =            2
     number of atomic types    =            1
     number of electrons       =         8.00
     number of Kohn-Sham states=           16
     kinetic-energy cutoff     =     100.0000  Ry
     charge density cutoff     =     400.0000  Ry
     Exchange-correlation= PBE
                           (   1   4   3   4   0   0   0)
     Non magnetic calculation with spin-orbit


     celldm(1)=   7.308615  celldm(2)=   0.000000  celldm(3)=   0.000000
     celldm(4)=   0.000000  celldm(5)=   0.000000  celldm(6)=   0.000000

     crystal axes: (cart. coord. in units of alat)
               a(1) = (   0.000000   0.707107   0.707107 )  
               a(2) = (   0.707107   0.000000   0.707107 )  
               a(3) = (   0.707107   0.707107   0.000000 )  

     reciprocal axes: (cart. coord. in units 2 pi/alat)
               b(1) = ( -0.707107  0.707107  0.707107 )  
               b(2) = (  0.707107 -0.707107  0.707107 )  
               b(3) = (  0.707107  0.707107 -0.707107 )  


     PseudoPot. # 1 for Si read from file:
     ../../pseudo/soc/Si.upf
     MD5 check sum: d8e8ea3dd55db7858206a05f373c9c65
     Pseudo is Norm-conserving + core correction, Zval =  4.0
     Generated using ONCVPSP code by D. R. Hamann
     Using radial grid of 1528 points, 10 beta functions with: 
                l(1) =   0
                l(2) =   0
                l(3) =   1
                l(4) =   1
                l(5) =   1
                l(6) =   1
                l(7) =   2
                l(8) =   2
                l(9) =   2
               l(10) =   2

     atomic species   valence    mass     pseudopotential
        Si             4.00    28.08550     Si( 1.00)

     48 Sym. Ops., with inversion, found (36 have fractional translation)



   Cartesian axes

     site n.     atom                  positions (alat units)
         1           Si  tau(   1) = (   0.8838835   0.8838835   0.8838835  )
         2           Si  tau(   2) = (   0.5303301   0.5303301   0.5303301  )

     number of k points=     4  Methfessel-Paxton smearing, width (Ry)=  0.0100
                       cart. coord. in units 2pi/alat
        k(    1) = (   0.0000000   0.0000000   0.0000000), wk =   0.2500000
        k(    2) = (   0.0000000   0.7071068   0.0000000), wk =   0.2500000
        k(    3) = (   0.3535534   0.3535534   0.3535534), wk =   0.2500000
        k(    4) = (   0.3535534   0.7071068   0.0000000), wk =   0.2500000

     Dense  grid:    37309 G-vectors     FFT dimensions: (  48,  48,  48)

     Estimated max dynamical RAM per process >       6.12 MB

     Estimated total dynamical RAM >     146.87 MB

     The potential is recalculated from file :
     /work/k0508/k050801/Si/rep_Bilbao/Si.save/charge-density

     Starting wfcs are   16 randomized atomic wfcs

     Band Structure Calculation
     Davidson diagonalization with overlap

     ethr =  1.25E-10,  avg # of iterations = 24.5

     total cpu time spent up to now is        1.2 secs

     End of band structure calculation

          k = 0.0000 0.0000 0.0000 (  4645 PWs)   bands (ev):

    -5.8082  -5.8082   5.9785   5.9785   6.0258   6.0258   6.0258   6.0258
     8.5334   8.5334   8.5681   8.5681   8.5681   8.5681   9.1079   9.1079

          k = 0.0000 0.7071 0.0000 (  4720 PWs)   bands (ev):

    -1.7430  -1.7430  -1.7430  -1.7430   3.2111   3.2111   3.2111   3.2111
     6.7594   6.7594   6.7594   6.7594  15.9161  15.9161  15.9161  15.9161

          k = 0.3536 0.3536 0.3536 (  4626 PWs)   bands (ev):

    -3.5317  -3.5317  -0.8640  -0.8640   4.8124   4.8124   4.8437   4.8437
     7.4624   7.4624   9.3479   9.3479   9.3624   9.3624  13.7117  13.7117

          k = 0.3536 0.7071 0.0000 (  4648 PWs)   bands (ev):

    -1.5915  -1.5915  -1.5860  -1.5860   2.2389   2.2389   2.2516   2.2516
    10.2834  10.2834  10.2836  10.2836  10.9201  10.9201  10.9368  10.9368

     Writing output data file /work/k0508/k050801/Si/rep_Bilbao/Si.save/
 
     init_run     :      0.05s CPU      0.08s WALL (       1 calls)
     electrons    :      0.60s CPU      0.69s WALL (       1 calls)

     Called by init_run:
     wfcinit      :      0.00s CPU      0.00s WALL (       1 calls)
     potinit      :      0.00s CPU      0.01s WALL (       1 calls)
     hinit0       :      0.04s CPU      0.05s WALL (       1 calls)

     Called by electrons:
     c_bands      :      0.60s CPU      0.69s WALL (       1 calls)
     v_of_rho     :      0.00s CPU      0.00s WALL (       1 calls)

     Called by c_bands:
     init_us_2    :      0.00s CPU      0.00s WALL (       4 calls)
     cegterg      :      0.57s CPU      0.60s WALL (       7 calls)

     Called by *egterg:
     cdiaghg      :      0.04s CPU      0.06s WALL (     102 calls)
     h_psi        :      0.52s CPU      0.55s WALL (     109 calls)
     g_psi        :      0.00s CPU      0.00s WALL (      98 calls)

     Called by h_psi:
     h_psi:calbec :      0.02s CPU      0.02s WALL (     109 calls)
     vloc_psi     :      0.48s CPU      0.51s WALL (     109 calls)
     add_vuspsi   :      0.02s CPU      0.02s WALL (     109 calls)

     General routines
     calbec       :      0.02s CPU      0.02s WALL (     109 calls)
     fft          :      0.03s CPU      0.04s WALL (      14 calls)
     fftw         :      0.45s CPU      0.48s WALL (    5284 calls)
     davcio       :      0.00s CPU      0.01s WALL (       8 calls)
 
     Parallel routines
     fft_scatt_xy :      0.03s CPU      0.03s WALL (    5298 calls)
     fft_scatt_yz :      0.29s CPU      0.30s WALL (    5298 calls)
 
     PWSCF        :      0.91s CPU      1.42s WALL

 
   This run was terminated on:   1:45:25  30Nov2020            

=------------------------------------------------------------------------------=
   JOB DONE.
=------------------------------------------------------------------------------=
