mpijob CMD    : mpirun -f /tmp/mpiexec.params.k014709.30364
mpijob PARAMS : -d /home/k0147/k014709/research/dft/get_rep/program/example/Si_soc
        r1i0n18 24 omplace -nt 1
        "/home/k0147/k014709/research/dft/qe-6.2/bin/pw.x"

SGI MPT Placement option
--------------------------
omplace -nt 1

Node   MPI
------------
r1i0n18 24


     Program PWSCF v.6.2 (svn rev. 13949:13950) starts on 23Mar2020 at 18:32:49 

     This program is part of the open-source Quantum ESPRESSO suite
     for quantum simulation of materials; please cite
         "P. Giannozzi et al., J. Phys.:Condens. Matter 21 395502 (2009);
         "P. Giannozzi et al., J. Phys.:Condens. Matter 29 465901 (2017);
          URL http://www.quantum-espresso.org", 
     in publications or presentations arising from this work. More details at
     http://www.quantum-espresso.org/quote

     Parallel version (MPI), running on    24 processors

     MPI processes distributed on     1 nodes
     R & G space division:  proc/nbgrp/npool/nimage =      24
     Waiting for input...
     Reading input from standard input

     Current dimensions of program PWSCF are:
     Max number of different atomic species (ntypx) = 10
     Max number of k-points (npk) =  40000
     Max angular momentum in pseudopotentials (lmaxx) =  3

     Atomic positions and unit cell read from directory:
     /work/k0147/k014709/band/Si/Si.save/
 
     Message from routine readpp:
     file /work/k0147/k014709/band/Si/Si.save/Si_ONCV_PBE_fr.upf not found

     Subspace diagonalization in iterative solution of the eigenvalue problem:
     a serial algorithm will be used

 
     Parallelization info
     --------------------
     sticks:   dense  smooth     PW     G-vecs:    dense   smooth      PW
     Min          61      61     17                 1553     1553     238
     Max          62      62     18                 1556     1556     242
     Sum        1483    1483    421                37309    37309    5769
 


     bravais-lattice index     =            0
     lattice parameter (alat)  =       7.3086  a.u.
     unit-cell volume          =     276.0515 (a.u.)^3
     number of atoms/cell      =            2
     number of atomic types    =            1
     number of electrons       =         8.00
     number of Kohn-Sham states=           16
     kinetic-energy cutoff     =     100.0000  Ry
     charge density cutoff     =     400.0000  Ry
     Exchange-correlation      = PBE ( 1  4  3  4 0 0)
     Non magnetic calculation with spin-orbit


     celldm(1)=   7.308615  celldm(2)=   0.000000  celldm(3)=   0.000000
     celldm(4)=   0.000000  celldm(5)=   0.000000  celldm(6)=   0.000000

     crystal axes: (cart. coord. in units of alat)
               a(1) = (   0.000000   0.707107   0.707107 )  
               a(2) = (   0.707107   0.000000   0.707107 )  
               a(3) = (   0.707107   0.707107   0.000000 )  

     reciprocal axes: (cart. coord. in units 2 pi/alat)
               b(1) = ( -0.707107  0.707107  0.707107 )  
               b(2) = (  0.707107 -0.707107  0.707107 )  
               b(3) = (  0.707107  0.707107 -0.707107 )  


     PseudoPot. # 1 for Si read from file:
     ~/research/dft/ONCVPSP-master/abinit/Si_ONCV_PBE_fr.upf
     MD5 check sum: Not computed, couldn't open file
     Pseudo is Norm-conserving + core correction, Zval =  4.0
     Generated using ONCVPSP code by D. R. Hamann
     Using radial grid of 1528 points, 10 beta functions with: 
                l(1) =   0
                l(2) =   0
                l(3) =   1
                l(4) =   1
                l(5) =   1
                l(6) =   1
                l(7) =   2
                l(8) =   2
                l(9) =   2
               l(10) =   2

     atomic species   valence    mass     pseudopotential
        Si             4.00    28.08550     Si( 1.00)

     48 Sym. Ops., with inversion, found (24 have fractional translation)



   Cartesian axes

     site n.     atom                  positions (alat units)
         1           Si  tau(   1) = (   0.0000000   0.0000000   0.0000000  )
         2           Si  tau(   2) = (   0.3535534   1.0606602   1.0606602  )

     number of k points=   362  Methfessel-Paxton smearing, width (Ry)=  0.0100

     Number of k-points >= 100: set verbosity='high' to print them.

     Dense  grid:    37309 G-vectors     FFT dimensions: (  48,  48,  48)

     Estimated max dynamical RAM per process >       7.32 MB

     Estimated total dynamical RAM >     175.76 MB

     The potential is recalculated from file :
     /work/k0147/k014709/band/Si/Si.save/charge-density.dat

     Starting wfc are   16 randomized atomic wfcs

     Band Structure Calculation
     Davidson diagonalization with overlap

     ethr =  1.25E-10,  avg # of iterations = 19.7

     total cpu time spent up to now is       44.0 secs

     End of band structure calculation

     Number of k-points >= 100: set verbosity='high' to print the bands.

     Writing output data file Si.save
 
     init_run     :      0.07s CPU      0.08s WALL (       1 calls)
     electrons    :     42.12s CPU     43.57s WALL (       1 calls)

     Called by init_run:
     wfcinit      :      0.00s CPU      0.00s WALL (       1 calls)
     potinit      :      0.01s CPU      0.01s WALL (       1 calls)

     Called by electrons:
     c_bands      :     42.12s CPU     43.57s WALL (       1 calls)
     v_of_rho     :      0.00s CPU      0.00s WALL (       1 calls)

     Called by c_bands:
     init_us_2    :      0.04s CPU      0.04s WALL (     362 calls)
     cegterg      :     38.04s CPU     39.23s WALL (     476 calls)

     Called by sum_band:

     Called by *egterg:
     h_psi        :     32.26s CPU     33.17s WALL (    7967 calls)
     g_psi        :      0.26s CPU      0.24s WALL (    7129 calls)
     cdiaghg      :      4.62s CPU      4.84s WALL (    7491 calls)

     Called by h_psi:
     h_psi:pot    :     32.15s CPU     33.05s WALL (    7967 calls)
     h_psi:calbec :      1.28s CPU      1.28s WALL (    7967 calls)
     vloc_psi     :     29.26s CPU     30.16s WALL (    7967 calls)
     add_vuspsi   :      1.54s CPU      1.57s WALL (    7967 calls)

     General routines
     calbec       :      1.25s CPU      1.26s WALL (    7967 calls)
     fft          :      0.03s CPU      0.03s WALL (      14 calls)
     fftw         :     27.03s CPU     27.94s WALL (  336864 calls)
     davcio       :      0.09s CPU      0.12s WALL (     724 calls)
 
     Parallel routines
     fft_scatt_xy :      1.95s CPU      1.91s WALL (  336878 calls)
     fft_scatt_yz :     13.62s CPU     14.24s WALL (  336878 calls)
 
     PWSCF        :    47.74s CPU        52.71s WALL

 
   This run was terminated on:  18:33:42  23Mar2020            

=------------------------------------------------------------------------------=
   JOB DONE.
=------------------------------------------------------------------------------=
