mpijob CMD    : mpirun -f /tmp/mpiexec.params.k014709.30526
mpijob PARAMS : -d /home/k0147/k014709/research/dft/get_rep/program/example/Si_soc
        r1i0n18 24 omplace -nt 1
        "/home/k0147/k014709/research/dft/qe-6.2/bin/bands.x"

SGI MPT Placement option
--------------------------
omplace -nt 1

Node   MPI
------------
r1i0n18 24


     Program BANDS v.6.2 (svn rev. 13949:13950) starts on 23Mar2020 at 18:33:42 

     This program is part of the open-source Quantum ESPRESSO suite
     for quantum simulation of materials; please cite
         "P. Giannozzi et al., J. Phys.:Condens. Matter 21 395502 (2009);
         "P. Giannozzi et al., J. Phys.:Condens. Matter 29 465901 (2017);
          URL http://www.quantum-espresso.org", 
     in publications or presentations arising from this work. More details at
     http://www.quantum-espresso.org/quote

     Parallel version (MPI), running on    24 processors

     MPI processes distributed on     1 nodes
     R & G space division:  proc/nbgrp/npool/nimage =      24

     Reading data from directory:
     /work/k0147/k014709/band/Si/Si.save

     IMPORTANT: XC functional enforced from input :
     Exchange-correlation      = PBE ( 1  4  3  4 0 0)
     Any further DFT definition will be discarded
     Please, verify this is what you really want

     Message from routine readpp:
     file /work/k0147/k014709/band/Si/Si.save/Si_ONCV_PBE_fr.upf not found
 
     Parallelization info
     --------------------
     sticks:   dense  smooth     PW     G-vecs:    dense   smooth      PW
     Min          61      61     17                 1553     1553     238
     Max          62      62     18                 1556     1556     242
     Sum        1483    1483    421                37309    37309    5769
 
     high-symmetry point:  0.0000 0.0000 0.0000   x coordinate   0.0000
     high-symmetry point:  0.0000 0.7071 0.0000   x coordinate   0.7071
     high-symmetry point:  0.1768 0.7071 0.1768   x coordinate   0.9571
     high-symmetry point:  0.5303 0.5303 0.0000   x coordinate   0.9571
     high-symmetry point:  0.0000 0.0000 0.0000   x coordinate   1.7071
     high-symmetry point:  0.3536 0.3536 0.3536   x coordinate   2.3195
     high-symmetry point:  0.3536 0.7071 0.0000   x coordinate   2.8195
     high-symmetry point:  0.0000 0.7071 0.0000   x coordinate   3.1730

     Plottable bands (eV) written to file Si.band.gnu
     Bands written to file Si.band

 **************************************************************************

                    xk=(   0.00000,   0.00000,   0.00000  )

     double point group O_h (m-3m) 
     there are 16 classes and  6 irreducible representations
     the character table:

       E     -E    8C3   -8C3   3C2  6C4   -6C4   6C2' i     -i    8S6   -8S6 
                               -3C2              -6C2'                        
G_6+   2.00 -2.00  1.00 -1.00  0.00  1.41 -1.41  0.00  2.00 -2.00  1.00 -1.00
G_7+   2.00 -2.00  1.00 -1.00  0.00 -1.41  1.41  0.00  2.00 -2.00  1.00 -1.00
G_8+   4.00 -4.00 -1.00  1.00  0.00  0.00  0.00  0.00  4.00 -4.00 -1.00  1.00
G_6-   2.00 -2.00  1.00 -1.00  0.00  1.41 -1.41  0.00 -2.00  2.00 -1.00  1.00
G_7-   2.00 -2.00  1.00 -1.00  0.00 -1.41  1.41  0.00 -2.00  2.00 -1.00  1.00
G_8-   4.00 -4.00 -1.00  1.00  0.00  0.00  0.00  0.00 -4.00  4.00  1.00 -1.00

        3s_h 6S4   -6S4   6s_d
       -3s_h             -6s_d
G_6+   0.00  1.41 -1.41  0.00
G_7+   0.00 -1.41  1.41  0.00
G_8+   0.00  0.00  0.00  0.00
G_6-   0.00 -1.41  1.41  0.00
G_7-   0.00  1.41 -1.41  0.00
G_8-   0.00  0.00  0.00  0.00

     the symmetry operations in each class and the name of the first element:

     E             1
                                                                 
     -E           -1
                                                                 
     8C3          17   19   20   18   24   21   22   23
                                                                 
     -8C3        -17  -19  -20  -18  -24  -21  -22  -23
                                                                 
      3C2 -3C2     2   -2    4   -4    3   -3
                                                                 
     6C4           7    8   15   16   12   11
                                                                 
     -6C4         -7   -8  -15  -16  -12  -11
                                                                 
      6C2'-6C2'    5   -5   -6    6   14  -13  -14   13   10   -9  -10    9
                                                                 
     i            25
                                                                 
     -i          -25
                                                                 
     8S6          41   43   44   42   48   45   46   47
                                                                 
     -8S6        -41  -43  -44  -42  -48  -45  -46  -47
                                                                 
      3s_h-3s_h   26  -26   28  -28   27  -27
                                                                 
     6S4          31   32   39   40   36   35
                                                                 
     -6S4        -31  -32  -39  -40  -36  -35
                                                                 
      6s_d-6s_d   29  -29  -30   30   38  -37  -38   37   34  -33  -34   33
                                                                 

     Band symmetry, O_h (m-3m)  double point group:

     e(  1 -  2) =     -5.80816  eV     2   --> G_6+           
     e(  3 -  4) =      5.97856  eV     2   --> G_7+           
     e(  5 -  8) =      6.02586  eV     4   --> G_8+           
     e(  9 - 10) =      8.53345  eV     2   --> G_6-           
     e( 11 - 14) =      8.56814  eV     4   --> G_8-           
     e( 15 - 16) =      9.10792  eV     2   --> G_7-           

 **************************************************************************

 **************************************************************************

                    xk=(   0.00000,   0.01179,   0.00000  )

     double point group C_4v (4mm) 
     there are  7 classes and  2 irreducible representations
     the character table:

       E     -E    2C4   -2C4   C2    2s_v  2s_d
                               -C2   -2s_v -2s_d
G_6    2.00 -2.00  1.41 -1.41  0.00  0.00  0.00
G_7    2.00 -2.00 -1.41  1.41  0.00  0.00  0.00

     the symmetry operations in each class and the name of the first element:

     E             1
                                                                 
     -E           -1
                                                                 
     2C4           3    4
                                                                 
     -2C4         -3   -4
                                                                 
      C2  -C2      2   -2
                                                                 
      2s_v-2s_v    5   -5    6   -6
                                                                 
      2s_d-2s_d    7   -7   -8    8
                                                                 

     Band symmetry, C_4v (4mm)  double point group:

     e(  1 -  2) =     -5.80697  eV     2   --> G_6   D_6      
     e(  3 -  4) =      5.97220  eV     2   --> G_7   D_7      
     e(  5 -  6) =      6.01825  eV     2   --> G_7   D_7      
     e(  7 -  8) =      6.02060  eV     2   --> G_6   D_6      
     e(  9 - 10) =      8.53633  eV     2   --> G_6   D_6      
     e( 11 - 12) =      8.56902  eV     2   --> G_6   D_6      
     e( 13 - 14) =      8.57473  eV     2   --> G_7   D_7      
     e( 15 - 16) =      9.11661  eV     2   --> G_7   D_7      

 **************************************************************************

 **************************************************************************

                    xk=(   0.00000,   0.02357,   0.00000  )

     Band symmetry, C_4v (4mm)  double point group:

     e(  1 -  2) =     -5.80339  eV     2   --> G_6   D_6      
     e(  3 -  4) =      5.95248  eV     2   --> G_7   D_7      
     e(  5 -  6) =      5.99653  eV     2   --> G_7   D_7      
     e(  7 -  8) =      6.00498  eV     2   --> G_6   D_6      
     e(  9 - 10) =      8.53713  eV     2   --> G_6   D_6      
     e( 11 - 12) =      8.57938  eV     2   --> G_6   D_6      
     e( 13 - 14) =      8.59434  eV     2   --> G_7   D_7      
     e( 15 - 16) =      9.14233  eV     2   --> G_7   D_7      

 **************************************************************************

 **************************************************************************

                    xk=(   0.00000,   0.03536,   0.00000  )

     Band symmetry, C_4v (4mm)  double point group:

     e(  1 -  2) =     -5.79742  eV     2   --> G_6   D_6      
     e(  3 -  4) =      5.91744  eV     2   --> G_7   D_7      
     e(  5 -  6) =      5.96401  eV     2   --> G_7   D_7      
     e(  7 -  8) =      5.97950  eV     2   --> G_6   D_6      
     e(  9 - 10) =      8.52674  eV     2   --> G_6   D_6      
     e( 11 - 12) =      8.60794  eV     2   --> G_6   D_6      
     e( 13 - 14) =      8.62649  eV     2   --> G_7   D_7      
     e( 15 - 16) =      9.18411  eV     2   --> G_7   D_7      

 **************************************************************************

 **************************************************************************

                    xk=(   0.00000,   0.04714,   0.00000  )

     Band symmetry, C_4v (4mm)  double point group:

     e(  1 -  2) =     -5.78907  eV     2   --> G_6   D_6      
     e(  3 -  4) =      5.86529  eV     2   --> G_7   D_7      
     e(  5 -  6) =      5.92451  eV     2   --> G_7   D_7      
     e(  7 -  8) =      5.94493  eV     2   --> G_6   D_6      
     e(  9 - 10) =      8.50801  eV     2   --> G_6   D_6      
     e( 11 - 12) =      8.65128  eV     2   --> G_6   D_6      
     e( 13 - 14) =      8.67046  eV     2   --> G_7   D_7      
     e( 15 - 16) =      9.24045  eV     2   --> G_7   D_7      

 **************************************************************************

 **************************************************************************

                    xk=(   0.00000,   0.05893,   0.00000  )

     Band symmetry, C_4v (4mm)  double point group:

     e(  1 -  2) =     -5.77833  eV     2   --> G_6   D_6      
     e(  3 -  4) =      5.79710  eV     2   --> G_7   D_7      
     e(  5 -  6) =      5.87943  eV     2   --> G_7   D_7      
     e(  7 -  8) =      5.90221  eV     2   --> G_6   D_6      
     e(  9 - 10) =      8.48310  eV     2   --> G_6   D_6      
     e( 11 - 12) =      8.70657  eV     2   --> G_6   D_6      
     e( 13 - 14) =      8.72537  eV     2   --> G_7   D_7      
     e( 15 - 16) =      9.30951  eV     2   --> G_7   D_7      

 **************************************************************************

 **************************************************************************

                    xk=(   0.00000,   0.07071,   0.00000  )

     Band symmetry, C_4v (4mm)  double point group:

     e(  1 -  2) =     -5.76521  eV     2   --> G_6   D_6      
     e(  3 -  4) =      5.71547  eV     2   --> G_7   D_7      
     e(  5 -  6) =      5.82880  eV     2   --> G_7   D_7      
     e(  7 -  8) =      5.85235  eV     2   --> G_6   D_6      
     e(  9 - 10) =      8.45285  eV     2   --> G_6   D_6      
     e( 11 - 12) =      8.77224  eV     2   --> G_6   D_6      
     e( 13 - 14) =      8.79024  eV     2   --> G_7   D_7      
     e( 15 - 16) =      9.38925  eV     2   --> G_7   D_7      

 **************************************************************************

 **************************************************************************

                    xk=(   0.00000,   0.08250,   0.00000  )

     Band symmetry, C_4v (4mm)  double point group:

     e(  1 -  2) =     -5.74970  eV     2   --> G_6   D_6      
     e(  3 -  4) =      5.62277  eV     2   --> G_7   D_7      
     e(  5 -  6) =      5.77291  eV     2   --> G_7   D_7      
     e(  7 -  8) =      5.79639  eV     2   --> G_6   D_6      
     e(  9 - 10) =      8.41780  eV     2   --> G_6   D_6      
     e( 11 - 12) =      8.84707  eV     2   --> G_6   D_6      
     e( 13 - 14) =      8.86407  eV     2   --> G_7   D_7      
     e( 15 - 16) =      9.47752  eV     2   --> G_7   D_7      

 **************************************************************************

 **************************************************************************

                    xk=(   0.00000,   0.09428,   0.00000  )

     Band symmetry, C_4v (4mm)  double point group:

     e(  1 -  2) =     -5.73182  eV     2   --> G_6   D_6      
     e(  3 -  4) =      5.52088  eV     2   --> G_7   D_7      
     e(  5 -  6) =      5.71234  eV     2   --> G_7   D_7      
     e(  7 -  8) =      5.73532  eV     2   --> G_6   D_6      
     e(  9 - 10) =      8.37841  eV     2   --> G_6   D_6      
     e( 11 - 12) =      8.93000  eV     2   --> G_6   D_6      
     e( 13 - 14) =      8.94588  eV     2   --> G_7   D_7      
     e( 15 - 16) =      9.57217  eV     2   --> G_7   D_7      

 **************************************************************************

 **************************************************************************

                    xk=(   0.00000,   0.10607,   0.00000  )

     Band symmetry, C_4v (4mm)  double point group:

     e(  1 -  2) =     -5.71157  eV     2   --> G_6   D_6      
     e(  3 -  4) =      5.41132  eV     2   --> G_7   D_7      
     e(  5 -  6) =      5.64780  eV     2   --> G_7   D_7      
     e(  7 -  8) =      5.67006  eV     2   --> G_6   D_6      
     e(  9 - 10) =      8.33512  eV     2   --> G_6   D_6      
     e( 11 - 12) =      9.02006  eV     2   --> G_6   D_6      
     e( 13 - 14) =      9.03479  eV     2   --> G_7   D_7      
     e( 15 - 16) =      9.67096  eV     2   --> G_7   D_7      

 **************************************************************************

 **************************************************************************

                    xk=(   0.00000,   0.11785,   0.00000  )

     Band symmetry, C_4v (4mm)  double point group:

     e(  1 -  2) =     -5.68894  eV     2   --> G_6   D_6      
     e(  3 -  4) =      5.29538  eV     2   --> G_7   D_7      
     e(  5 -  6) =      5.58001  eV     2   --> G_7   D_7      
     e(  7 -  8) =      5.60143  eV     2   --> G_6   D_6      
     e(  9 - 10) =      8.28838  eV     2   --> G_6   D_6      
     e( 11 - 12) =      9.11641  eV     2   --> G_6   D_6      
     e( 13 - 14) =      9.12997  eV     2   --> G_7   D_7      
     e( 15 - 16) =      9.77158  eV     2   --> G_7   D_7      

 **************************************************************************

 **************************************************************************

                    xk=(   0.00000,   0.12964,   0.00000  )

     Band symmetry, C_4v (4mm)  double point group:

     e(  1 -  2) =     -5.66394  eV     2   --> G_6   D_6      
     e(  3 -  4) =      5.17410  eV     2   --> G_7   D_7      
     e(  5 -  6) =      5.50961  eV     2   --> G_7   D_7      
     e(  7 -  8) =      5.53016  eV     2   --> G_6   D_6      
     e(  9 - 10) =      8.23862  eV     2   --> G_6   D_6      
     e( 11 - 12) =      9.21829  eV     2   --> G_6   D_6      
     e( 13 - 14) =      9.23071  eV     2   --> G_7   D_7      
     e( 15 - 16) =      9.87154  eV     2   --> G_7   D_7      

 **************************************************************************

 **************************************************************************

                    xk=(   0.00000,   0.14142,   0.00000  )

     Band symmetry, C_4v (4mm)  double point group:

     e(  1 -  2) =     -5.63658  eV     2   --> G_6   D_6      
     e(  3 -  4) =      5.04837  eV     2   --> G_7   D_7      
     e(  5 -  6) =      5.43721  eV     2   --> G_7   D_7      
     e(  7 -  8) =      5.45686  eV     2   --> G_6   D_6      
     e(  9 - 10) =      8.18624  eV     2   --> G_6   D_6      
     e( 11 - 12) =      9.32506  eV     2   --> G_6   D_6      
     e( 13 - 14) =      9.33637  eV     2   --> G_7   D_7      
     e( 15 - 16) =      9.96806  eV     2   --> G_7   D_7      

 **************************************************************************

 **************************************************************************

                    xk=(   0.00000,   0.15321,   0.00000  )

     Band symmetry, C_4v (4mm)  double point group:

     e(  1 -  2) =     -5.60685  eV     2   --> G_6   D_6      
     e(  3 -  4) =      4.91891  eV     2   --> G_7   D_7      
     e(  5 -  6) =      5.36331  eV     2   --> G_7   D_7      
     e(  7 -  8) =      5.38208  eV     2   --> G_6   D_6      
     e(  9 - 10) =      8.13166  eV     2   --> G_6   D_6      
     e( 11 - 12) =      9.43616  eV     2   --> G_6   D_6      
     e( 13 - 14) =      9.44640  eV     2   --> G_7   D_7      
     e( 15 - 16) =     10.05797  eV     2   --> G_7   D_7      

 **************************************************************************

 **************************************************************************

                    xk=(   0.00000,   0.16499,   0.00000  )

     Band symmetry, C_4v (4mm)  double point group:

     e(  1 -  2) =     -5.57477  eV     2   --> G_6   D_6      
     e(  3 -  4) =      4.78633  eV     2   --> G_7   D_7      
     e(  5 -  6) =      5.28838  eV     2   --> G_7   D_7      
     e(  7 -  8) =      5.30629  eV     2   --> G_6   D_6      
     e(  9 - 10) =      8.07525  eV     2   --> G_6   D_6      
     e( 11 - 12) =      9.55110  eV     2   --> G_6   D_6      
     e( 13 - 14) =      9.56030  eV     2   --> G_7   D_7      
     e( 15 - 16) =     10.13765  eV     2   --> G_7   D_7      

 **************************************************************************

 **************************************************************************

                    xk=(   0.00000,   0.17678,   0.00000  )

     Band symmetry, C_4v (4mm)  double point group:

     e(  1 -  2) =     -5.54034  eV     2   --> G_6   D_6      
     e(  3 -  4) =      4.65114  eV     2   --> G_7   D_7      
     e(  5 -  6) =      5.21280  eV     2   --> G_7   D_7      
     e(  7 -  8) =      5.22989  eV     2   --> G_6   D_6      
     e(  9 - 10) =      8.01739  eV     2   --> G_6   D_6      
     e( 11 - 12) =      9.66947  eV     2   --> G_6   D_6      
     e( 13 - 14) =      9.67768  eV     2   --> G_7   D_7      
     e( 15 - 16) =     10.20307  eV     2   --> G_7   D_7      

 **************************************************************************

 **************************************************************************

                    xk=(   0.00000,   0.18856,   0.00000  )

     Band symmetry, C_4v (4mm)  double point group:

     e(  1 -  2) =     -5.50356  eV     2   --> G_6   D_6      
     e(  3 -  4) =      4.51374  eV     2   --> G_7   D_7      
     e(  5 -  6) =      5.13692  eV     2   --> G_7   D_7      
     e(  7 -  8) =      5.15321  eV     2   --> G_6   D_6      
     e(  9 - 10) =      7.95840  eV     2   --> G_6   D_6      
     e( 11 - 12) =      9.79091  eV     2   --> G_6   D_6      
     e( 13 - 14) =      9.79815  eV     2   --> G_7   D_7      
     e( 15 - 16) =     10.25011  eV     2   --> G_7   D_7      

 **************************************************************************

 **************************************************************************

                    xk=(   0.00000,   0.20035,   0.00000  )

     Band symmetry, C_4v (4mm)  double point group:

     e(  1 -  2) =     -5.46445  eV     2   --> G_6   D_6      
     e(  3 -  4) =      4.37449  eV     2   --> G_7   D_7      
     e(  5 -  6) =      5.06101  eV     2   --> G_7   D_7      
     e(  7 -  8) =      5.07655  eV     2   --> G_6   D_6      
     e(  9 - 10) =      7.89862  eV     2   --> G_6   D_6      
     e( 11 - 12) =      9.91509  eV     2   --> G_6   D_6      
     e( 13 - 14) =      9.92141  eV     2   --> G_7   D_7      
     e( 15 - 16) =     10.27519  eV     2   --> G_7   D_7      

 **************************************************************************

 **************************************************************************

                    xk=(   0.00000,   0.21213,   0.00000  )

     Band symmetry, C_4v (4mm)  double point group:

     e(  1 -  2) =     -5.42300  eV     2   --> G_6   D_6      
     e(  3 -  4) =      4.23367  eV     2   --> G_7   D_7      
     e(  5 -  6) =      4.98535  eV     2   --> G_7   D_7      
     e(  7 -  8) =      5.00017  eV     2   --> G_6   D_6      
     e(  9 - 10) =      7.83832  eV     2   --> G_6   D_6      
     e( 11 - 12) =     10.04177  eV     2   --> G_6   D_6      
     e( 13 - 14) =     10.04713  eV     2   --> G_7   D_7      
     e( 15 - 16) =     10.27605  eV     2   --> G_7   D_7      

 **************************************************************************

 **************************************************************************

                    xk=(   0.00000,   0.22392,   0.00000  )

     Band symmetry, C_4v (4mm)  double point group:

     e(  1 -  2) =     -5.37922  eV     2   --> G_6   D_6      
     e(  3 -  4) =      4.09153  eV     2   --> G_7   D_7      
     e(  5 -  6) =      4.91014  eV     2   --> G_7   D_7      
     e(  7 -  8) =      4.92427  eV     2   --> G_6   D_6      
     e(  9 - 10) =      7.77780  eV     2   --> G_6   D_6      
     e( 11 - 12) =     10.17069  eV     2   --> G_6   D_6      
     e( 13 - 14) =     10.17471  eV     2   --> G_7   D_7      
     e( 15 - 16) =     10.25270  eV     2   --> G_7   D_7      

 **************************************************************************

 **************************************************************************

                    xk=(   0.00000,   0.23570,   0.00000  )

     Band symmetry, C_4v (4mm)  double point group:

     e(  1 -  2) =     -5.33313  eV     2   --> G_6   D_6      
     e(  3 -  4) =      3.94828  eV     2   --> G_7   D_7      
     e(  5 -  6) =      4.83557  eV     2   --> G_7   D_7      
     e(  7 -  8) =      4.84906  eV     2   --> G_6   D_6      
     e(  9 - 10) =      7.71730  eV     2   --> G_6   D_6      
     e( 11 - 12) =     10.20443  eV     2   --> G_7   D_7      
     e( 13 - 14) =     10.30166  eV     2   --> G_6   D_6      
     e( 15 - 16) =     10.30629  eV     2   --> G_7   D_7      

 **************************************************************************

 **************************************************************************

                    xk=(   0.00000,   0.24749,   0.00000  )

     Band symmetry, C_4v (4mm)  double point group:

     e(  1 -  2) =     -5.28472  eV     2   --> G_6   D_6      
     e(  3 -  4) =      3.80409  eV     2   --> G_7   D_7      
     e(  5 -  6) =      4.76181  eV     2   --> G_7   D_7      
     e(  7 -  8) =      4.77468  eV     2   --> G_6   D_6      
     e(  9 - 10) =      7.65704  eV     2   --> G_6   D_6      
     e( 11 - 12) =     10.13801  eV     2   --> G_7   D_7      
     e( 13 - 14) =     10.43449  eV     2   --> G_6   D_6      
     e( 15 - 16) =     10.43797  eV     2   --> G_7   D_7      

 **************************************************************************

 **************************************************************************

                    xk=(   0.00000,   0.25927,   0.00000  )

     Band symmetry, C_4v (4mm)  double point group:

     e(  1 -  2) =     -5.23401  eV     2   --> G_6   D_6      
     e(  3 -  4) =      3.65911  eV     2   --> G_7   D_7      
     e(  5 -  6) =      4.68900  eV     2   --> G_7   D_7      
     e(  7 -  8) =      4.70129  eV     2   --> G_6   D_6      
     e(  9 - 10) =      7.59726  eV     2   --> G_6   D_6      
     e( 11 - 12) =     10.05502  eV     2   --> G_7   D_7      
     e( 13 - 14) =     10.56902  eV     2   --> G_6   D_6      
     e( 15 - 16) =     10.57170  eV     2   --> G_7   D_7      

 **************************************************************************

 **************************************************************************

                    xk=(   0.00000,   0.27106,   0.00000  )

     Band symmetry, C_4v (4mm)  double point group:

     e(  1 -  2) =     -5.18100  eV     2   --> G_6   D_6      
     e(  3 -  4) =      3.51347  eV     2   --> G_7   D_7      
     e(  5 -  6) =      4.61728  eV     2   --> G_7   D_7      
     e(  7 -  8) =      4.62900  eV     2   --> G_6   D_6      
     e(  9 - 10) =      7.53813  eV     2   --> G_6   D_6      
     e( 11 - 12) =      9.95936  eV     2   --> G_7   D_7      
     e( 13 - 14) =     10.70512  eV     2   --> G_6   D_6      
     e( 15 - 16) =     10.70708  eV     2   --> G_7   D_7      

 **************************************************************************

 **************************************************************************

                    xk=(   0.00000,   0.28284,   0.00000  )

     Band symmetry, C_4v (4mm)  double point group:

     e(  1 -  2) =     -5.12572  eV     2   --> G_6   D_6      
     e(  3 -  4) =      3.36728  eV     2   --> G_7   D_7      
     e(  5 -  6) =      4.54674  eV     2   --> G_7   D_7      
     e(  7 -  8) =      4.55794  eV     2   --> G_6   D_6      
     e(  9 - 10) =      7.47984  eV     2   --> G_6   D_6      
     e( 11 - 12) =      9.85427  eV     2   --> G_7   D_7      
     e( 13 - 14) =     10.84265  eV     2   --> G_6   D_6      
     e( 15 - 16) =     10.84393  eV     2   --> G_7   D_7      

 **************************************************************************

 **************************************************************************

                    xk=(   0.00000,   0.29463,   0.00000  )

     Band symmetry, C_4v (4mm)  double point group:

     e(  1 -  2) =     -5.06815  eV     2   --> G_6   D_6      
     e(  3 -  4) =      3.22063  eV     2   --> G_7   D_7      
     e(  5 -  6) =      4.47750  eV     2   --> G_7   D_7      
     e(  7 -  8) =      4.48819  eV     2   --> G_6   D_6      
     e(  9 - 10) =      7.42256  eV     2   --> G_6   D_6      
     e( 11 - 12) =      9.74241  eV     2   --> G_7   D_7      
     e( 13 - 14) =     10.98151  eV     2   --> G_6   D_6      
     e( 15 - 16) =     10.98215  eV     2   --> G_7   D_7      

 **************************************************************************

 **************************************************************************

                    xk=(   0.00000,   0.30641,   0.00000  )

     Band symmetry, C_4v (4mm)  double point group:

     e(  1 -  2) =     -5.00832  eV     2   --> G_6   D_6      
     e(  3 -  4) =      3.07361  eV     2   --> G_7   D_7      
     e(  5 -  6) =      4.40963  eV     2   --> G_7   D_7      
     e(  7 -  8) =      4.41983  eV     2   --> G_6   D_6      
     e(  9 - 10) =      7.36643  eV     2   --> G_6   D_6      
     e( 11 - 12) =      9.62591  eV     2   --> G_7   D_7      
     e( 13 - 16) =     11.12161  eV     4   --> G_6   D_6      
     e( 13 - 16) =     11.12161  eV     4   --> G_7   D_7      

 **************************************************************************

 **************************************************************************

                    xk=(   0.00000,   0.31820,   0.00000  )

     Band symmetry, C_4v (4mm)  double point group:

     e(  1 -  2) =     -4.94623  eV     2   --> G_6   D_6      
     e(  3 -  4) =      2.92631  eV     2   --> G_7   D_7      
     e(  5 -  6) =      4.34322  eV     2   --> G_7   D_7      
     e(  7 -  8) =      4.35296  eV     2   --> G_6   D_6      
     e(  9 - 10) =      7.31160  eV     2   --> G_6   D_6      
     e( 11 - 12) =      9.50642  eV     2   --> G_7   D_7      
     e( 13 - 14) =     11.26228  eV     2   --> G_7   D_7      
     e( 15 - 16) =     11.26284  eV     2   --> G_6   D_6      

 **************************************************************************

 **************************************************************************

                    xk=(   0.00000,   0.32998,   0.00000  )

     Band symmetry, C_4v (4mm)  double point group:

     e(  1 -  2) =     -4.88191  eV     2   --> G_6   D_6      
     e(  3 -  4) =      2.77878  eV     2   --> G_7   D_7      
     e(  5 -  6) =      4.27834  eV     2   --> G_7   D_7      
     e(  7 -  8) =      4.28763  eV     2   --> G_6   D_6      
     e(  9 - 10) =      7.25820  eV     2   --> G_6   D_6      
     e( 11 - 12) =      9.38527  eV     2   --> G_7   D_7      
     e( 13 - 14) =     11.40402  eV     2   --> G_7   D_7      
     e( 15 - 16) =     11.40514  eV     2   --> G_6   D_6      

 **************************************************************************

 **************************************************************************

                    xk=(   0.00000,   0.34177,   0.00000  )

     Band symmetry, C_4v (4mm)  double point group:

     e(  1 -  2) =     -4.81535  eV     2   --> G_6   D_6      
     e(  3 -  4) =      2.63110  eV     2   --> G_7   D_7      
     e(  5 -  6) =      4.21504  eV     2   --> G_7   D_7      
     e(  7 -  8) =      4.22390  eV     2   --> G_6   D_6      
     e(  9 - 10) =      7.20634  eV     2   --> G_6   D_6      
     e( 11 - 12) =      9.26348  eV     2   --> G_7   D_7      
     e( 13 - 14) =     11.54677  eV     2   --> G_7   D_7      
     e( 15 - 16) =     11.54844  eV     2   --> G_6   D_6      

 **************************************************************************

 **************************************************************************

                    xk=(   0.00000,   0.35355,   0.00000  )

     Band symmetry, C_4v (4mm)  double point group:

     e(  1 -  2) =     -4.74657  eV     2   --> G_6   D_6      
     e(  3 -  4) =      2.48331  eV     2   --> G_7   D_7      
     e(  5 -  6) =      4.15338  eV     2   --> G_7   D_7      
     e(  7 -  8) =      4.16183  eV     2   --> G_6   D_6      
     e(  9 - 10) =      7.15614  eV     2   --> G_6   D_6      
     e( 11 - 12) =      9.14186  eV     2   --> G_7   D_7      
     e( 13 - 14) =     11.69048  eV     2   --> G_7   D_7      
     e( 15 - 16) =     11.69267  eV     2   --> G_6   D_6      

 **************************************************************************

 **************************************************************************

                    xk=(   0.00000,   0.36534,   0.00000  )

     Band symmetry, C_4v (4mm)  double point group:

     e(  1 -  2) =     -4.67558  eV     2   --> G_6   D_6      
     e(  3 -  4) =      2.33549  eV     2   --> G_7   D_7      
     e(  5 -  6) =      4.09342  eV     2   --> G_7   D_7      
     e(  7 -  8) =      4.10148  eV     2   --> G_6   D_6      
     e(  9 - 10) =      7.10769  eV     2   --> G_6   D_6      
     e( 11 - 12) =      9.02104  eV     2   --> G_7   D_7      
     e( 13 - 14) =     11.83509  eV     2   --> G_7   D_7      
     e( 15 - 16) =     11.83777  eV     2   --> G_6   D_6      

 **************************************************************************

 **************************************************************************

                    xk=(   0.00000,   0.37712,   0.00000  )

     Band symmetry, C_4v (4mm)  double point group:

     e(  1 -  2) =     -4.60241  eV     2   --> G_6   D_6      
     e(  3 -  4) =      2.18767  eV     2   --> G_7   D_7      
     e(  5 -  6) =      4.03519  eV     2   --> G_7   D_7      
     e(  7 -  8) =      4.04287  eV     2   --> G_6   D_6      
     e(  9 - 10) =      7.06109  eV     2   --> G_6   D_6      
     e( 11 - 12) =      8.90154  eV     2   --> G_7   D_7      
     e( 13 - 14) =     11.98055  eV     2   --> G_7   D_7      
     e( 15 - 16) =     11.98371  eV     2   --> G_6   D_6      

 **************************************************************************

 **************************************************************************

                    xk=(   0.00000,   0.38891,   0.00000  )

     Band symmetry, C_4v (4mm)  double point group:

     e(  1 -  2) =     -4.52705  eV     2   --> G_6   D_6      
     e(  3 -  4) =      2.03992  eV     2   --> G_7   D_7      
     e(  5 -  6) =      3.97875  eV     2   --> G_7   D_7      
     e(  7 -  8) =      3.98606  eV     2   --> G_6   D_6      
     e(  9 - 10) =      7.01643  eV     2   --> G_6   D_6      
     e( 11 - 12) =      8.78378  eV     2   --> G_7   D_7      
     e( 13 - 14) =     12.12681  eV     2   --> G_7   D_7      
     e( 15 - 16) =     12.13042  eV     2   --> G_6   D_6      

 **************************************************************************

 **************************************************************************

                    xk=(   0.00000,   0.40069,   0.00000  )

     Band symmetry, C_4v (4mm)  double point group:

     e(  1 -  2) =     -4.44954  eV     2   --> G_6   D_6      
     e(  3 -  4) =      1.89229  eV     2   --> G_7   D_7      
     e(  5 -  6) =      3.92412  eV     2   --> G_7   D_7      
     e(  7 -  8) =      3.93107  eV     2   --> G_6   D_6      
     e(  9 - 10) =      6.97379  eV     2   --> G_6   D_6      
     e( 11 - 12) =      8.66809  eV     2   --> G_7   D_7      
     e( 13 - 14) =     12.27383  eV     2   --> G_7   D_7      
     e( 15 - 16) =     12.27789  eV     2   --> G_6   D_6      

 **************************************************************************

 **************************************************************************

                    xk=(   0.00000,   0.41248,   0.00000  )

     Band symmetry, C_4v (4mm)  double point group:

     e(  1 -  2) =     -4.36987  eV     2   --> G_6   D_6      
     e(  3 -  4) =      1.74482  eV     2   --> G_7   D_7      
     e(  5 -  6) =      3.87135  eV     2   --> G_7   D_7      
     e(  7 -  8) =      3.87795  eV     2   --> G_6   D_6      
     e(  9 - 10) =      6.93325  eV     2   --> G_6   D_6      
     e( 11 - 12) =      8.55474  eV     2   --> G_7   D_7      
     e( 13 - 14) =     12.42158  eV     2   --> G_7   D_7      
     e( 15 - 16) =     12.42606  eV     2   --> G_6   D_6      

 **************************************************************************

 **************************************************************************

                    xk=(   0.00000,   0.42426,   0.00000  )

     Band symmetry, C_4v (4mm)  double point group:

     e(  1 -  2) =     -4.28808  eV     2   --> G_6   D_6      
     e(  3 -  4) =      1.59756  eV     2   --> G_7   D_7      
     e(  5 -  6) =      3.82045  eV     2   --> G_7   D_7      
     e(  7 -  8) =      3.82673  eV     2   --> G_6   D_6      
     e(  9 - 10) =      6.89487  eV     2   --> G_6   D_6      
     e( 11 - 12) =      8.44396  eV     2   --> G_7   D_7      
     e( 13 - 14) =     12.57003  eV     2   --> G_7   D_7      
     e( 15 - 16) =     12.57490  eV     2   --> G_6   D_6      

 **************************************************************************

 **************************************************************************

                    xk=(   0.00000,   0.43605,   0.00000  )

     Band symmetry, C_4v (4mm)  double point group:

     e(  1 -  2) =     -4.20417  eV     2   --> G_6   D_6      
     e(  3 -  4) =      1.45056  eV     2   --> G_7   D_7      
     e(  5 -  6) =      3.77147  eV     2   --> G_7   D_7      
     e(  7 -  8) =      3.77742  eV     2   --> G_6   D_6      
     e(  9 - 10) =      6.85872  eV     2   --> G_6   D_6      
     e( 11 - 12) =      8.33594  eV     2   --> G_7   D_7      
     e( 13 - 14) =     12.71914  eV     2   --> G_7   D_7      
     e( 15 - 16) =     12.72440  eV     2   --> G_6   D_6      

 **************************************************************************

 **************************************************************************

                    xk=(   0.00000,   0.44783,   0.00000  )

     Band symmetry, C_4v (4mm)  double point group:

     e(  1 -  2) =     -4.11816  eV     2   --> G_6   D_6      
     e(  3 -  4) =      1.30388  eV     2   --> G_7   D_7      
     e(  5 -  6) =      3.72442  eV     2   --> G_7   D_7      
     e(  7 -  8) =      3.73006  eV     2   --> G_6   D_6      
     e(  9 - 10) =      6.82488  eV     2   --> G_6   D_6      
     e( 11 - 12) =      8.23082  eV     2   --> G_7   D_7      
     e( 13 - 14) =     12.86889  eV     2   --> G_7   D_7      
     e( 15 - 16) =     12.87451  eV     2   --> G_6   D_6      

 **************************************************************************

 **************************************************************************

                    xk=(   0.00000,   0.45962,   0.00000  )

     Band symmetry, C_4v (4mm)  double point group:

     e(  1 -  2) =     -4.03008  eV     2   --> G_6   D_6      
     e(  3 -  4) =      1.15756  eV     2   --> G_7   D_7      
     e(  5 -  6) =      3.67933  eV     2   --> G_7   D_7      
     e(  7 -  8) =      3.68467  eV     2   --> G_6   D_6      
     e(  9 - 10) =      6.79339  eV     2   --> G_6   D_6      
     e( 11 - 12) =      8.12873  eV     2   --> G_7   D_7      
     e( 13 - 14) =     13.01925  eV     2   --> G_7   D_7      
     e( 15 - 16) =     13.02521  eV     2   --> G_6   D_6      

 **************************************************************************

 **************************************************************************

                    xk=(   0.00000,   0.47140,   0.00000  )

     Band symmetry, C_4v (4mm)  double point group:

     e(  1 -  2) =     -3.93994  eV     2   --> G_6   D_6      
     e(  3 -  4) =      1.01164  eV     2   --> G_7   D_7      
     e(  5 -  6) =      3.63623  eV     2   --> G_7   D_7      
     e(  7 -  8) =      3.64126  eV     2   --> G_6   D_6      
     e(  9 - 10) =      6.76432  eV     2   --> G_6   D_6      
     e( 11 - 12) =      8.02977  eV     2   --> G_7   D_7      
     e( 13 - 14) =     13.17019  eV     2   --> G_7   D_7      
     e( 15 - 16) =     13.17648  eV     2   --> G_6   D_6      

 **************************************************************************

 **************************************************************************

                    xk=(   0.00000,   0.48319,   0.00000  )

     Band symmetry, C_4v (4mm)  double point group:

     e(  1 -  2) =     -3.84777  eV     2   --> G_6   D_6      
     e(  3 -  4) =      0.86619  eV     2   --> G_7   D_7      
     e(  5 -  6) =      3.59512  eV     2   --> G_7   D_7      
     e(  7 -  8) =      3.59987  eV     2   --> G_6   D_6      
     e(  9 - 10) =      6.73771  eV     2   --> G_6   D_6      
     e( 11 - 12) =      7.93402  eV     2   --> G_7   D_7      
     e( 13 - 14) =     13.32168  eV     2   --> G_7   D_7      
     e( 15 - 16) =     13.32828  eV     2   --> G_6   D_6      

 **************************************************************************

 **************************************************************************

                    xk=(   0.00000,   0.49497,   0.00000  )

     Band symmetry, C_4v (4mm)  double point group:

     e(  1 -  2) =     -3.75357  eV     2   --> G_6   D_6      
     e(  3 -  4) =      0.72125  eV     2   --> G_7   D_7      
     e(  5 -  6) =      3.55604  eV     2   --> G_7   D_7      
     e(  7 -  8) =      3.56050  eV     2   --> G_6   D_6      
     e(  9 - 10) =      6.71362  eV     2   --> G_6   D_6      
     e( 11 - 12) =      7.84155  eV     2   --> G_7   D_7      
     e( 13 - 14) =     13.47370  eV     2   --> G_7   D_7      
     e( 15 - 16) =     13.48058  eV     2   --> G_6   D_6      

 **************************************************************************

 **************************************************************************

                    xk=(   0.00000,   0.50676,   0.00000  )

     Band symmetry, C_4v (4mm)  double point group:

     e(  1 -  2) =     -3.65739  eV     2   --> G_6   D_6      
     e(  3 -  4) =      0.57687  eV     2   --> G_7   D_7      
     e(  5 -  6) =      3.51899  eV     2   --> G_7   D_7      
     e(  7 -  8) =      3.52317  eV     2   --> G_6   D_6      
     e(  9 - 10) =      6.69211  eV     2   --> G_6   D_6      
     e( 11 - 12) =      7.75242  eV     2   --> G_7   D_7      
     e( 13 - 14) =     13.62620  eV     2   --> G_7   D_7      
     e( 15 - 16) =     13.63335  eV     2   --> G_6   D_6      

 **************************************************************************

 **************************************************************************

                    xk=(   0.00000,   0.51854,   0.00000  )

     Band symmetry, C_4v (4mm)  double point group:

     e(  1 -  2) =     -3.55923  eV     2   --> G_6   D_6      
     e(  3 -  4) =      0.43310  eV     2   --> G_7   D_7      
     e(  5 -  6) =      3.48399  eV     2   --> G_7   D_7      
     e(  7 -  8) =      3.48790  eV     2   --> G_6   D_6      
     e(  9 - 10) =      6.67320  eV     2   --> G_6   D_6      
     e( 11 - 12) =      7.66666  eV     2   --> G_7   D_7      
     e( 13 - 14) =     13.77914  eV     2   --> G_7   D_7      
     e( 15 - 16) =     13.78654  eV     2   --> G_6   D_6      

 **************************************************************************

 **************************************************************************

                    xk=(   0.00000,   0.53033,   0.00000  )

     Band symmetry, C_4v (4mm)  double point group:

     e(  1 -  2) =     -3.45912  eV     2   --> G_6   D_6      
     e(  3 -  4) =      0.29000  eV     2   --> G_7   D_7      
     e(  5 -  6) =      3.45106  eV     2   --> G_7   D_7      
     e(  7 -  8) =      3.45470  eV     2   --> G_6   D_6      
     e(  9 - 10) =      6.65696  eV     2   --> G_6   D_6      
     e( 11 - 12) =      7.58430  eV     2   --> G_7   D_7      
     e( 13 - 14) =     13.93247  eV     2   --> G_7   D_7      
     e( 15 - 16) =     13.94010  eV     2   --> G_6   D_6      

 **************************************************************************

 **************************************************************************

                    xk=(   0.00000,   0.54212,   0.00000  )

     Band symmetry, C_4v (4mm)  double point group:

     e(  1 -  2) =     -3.35709  eV     2   --> G_6   D_6      
     e(  3 -  4) =      0.14761  eV     2   --> G_7   D_7      
     e(  5 -  6) =      3.42021  eV     2   --> G_7   D_7      
     e(  7 -  8) =      3.42358  eV     2   --> G_6   D_6      
     e(  9 - 10) =      6.64342  eV     2   --> G_6   D_6      
     e( 11 - 12) =      7.50537  eV     2   --> G_7   D_7      
     e( 13 - 14) =     14.08611  eV     2   --> G_7   D_7      
     e( 15 - 16) =     14.09395  eV     2   --> G_6   D_6      

 **************************************************************************

 **************************************************************************

                    xk=(   0.00000,   0.55390,   0.00000  )

     Band symmetry, C_4v (4mm)  double point group:

     e(  1 -  2) =     -3.25316  eV     2   --> G_6   D_6      
     e(  3 -  4) =      0.00598  eV     2   --> G_7   D_7      
     e(  5 -  6) =      3.39144  eV     2   --> G_7   D_7      
     e(  7 -  8) =      3.39456  eV     2   --> G_6   D_6      
     e(  9 - 10) =      6.63263  eV     2   --> G_6   D_6      
     e( 11 - 12) =      7.42987  eV     2   --> G_7   D_7      
     e( 13 - 14) =     14.23998  eV     2   --> G_7   D_7      
     e( 15 - 16) =     14.24800  eV     2   --> G_6   D_6      

 **************************************************************************

 **************************************************************************

                    xk=(   0.00000,   0.56569,   0.00000  )

     Band symmetry, C_4v (4mm)  double point group:

     e(  1 -  2) =     -3.14736  eV     2   --> G_6   D_6      
     e(  3 -  4) =     -0.13483  eV     2   --> G_7   D_7      
     e(  5 -  6) =      3.36477  eV     2   --> G_7   D_7      
     e(  7 -  8) =      3.36764  eV     2   --> G_6   D_6      
     e(  9 - 10) =      6.62463  eV     2   --> G_6   D_6      
     e( 11 - 12) =      7.35783  eV     2   --> G_7   D_7      
     e( 13 - 14) =     14.39396  eV     2   --> G_7   D_7      
     e( 15 - 16) =     14.40214  eV     2   --> G_6   D_6      

 **************************************************************************

 **************************************************************************

                    xk=(   0.00000,   0.57747,   0.00000  )

     Band symmetry, C_4v (4mm)  double point group:

     e(  1 -  2) =     -3.03972  eV     2   --> G_6   D_6      
     e(  3 -  4) =     -0.27478  eV     2   --> G_7   D_7      
     e(  5 -  6) =      3.34022  eV     2   --> G_7   D_7      
     e(  7 -  8) =      3.34283  eV     2   --> G_6   D_6      
     e(  9 - 10) =      6.61945  eV     2   --> G_6   D_6      
     e( 11 - 12) =      7.28924  eV     2   --> G_7   D_7      
     e( 13 - 14) =     14.54789  eV     2   --> G_7   D_7      
     e( 15 - 16) =     14.55620  eV     2   --> G_6   D_6      

 **************************************************************************

 **************************************************************************

                    xk=(   0.00000,   0.58926,   0.00000  )

     Band symmetry, C_4v (4mm)  double point group:

     e(  1 -  2) =     -2.93026  eV     2   --> G_6   D_6      
     e(  3 -  4) =     -0.41380  eV     2   --> G_7   D_7      
     e(  5 -  6) =      3.31778  eV     2   --> G_7   D_7      
     e(  7 -  8) =      3.32014  eV     2   --> G_6   D_6      
     e(  9 - 10) =      6.61714  eV     2   --> G_6   D_6      
     e( 11 - 12) =      7.22410  eV     2   --> G_7   D_7      
     e( 13 - 14) =     14.70154  eV     2   --> G_7   D_7      
     e( 15 - 16) =     14.70994  eV     2   --> G_6   D_6      

 **************************************************************************

 **************************************************************************

                    xk=(   0.00000,   0.60104,   0.00000  )

     Band symmetry, C_4v (4mm)  double point group:

     e(  1 -  2) =     -2.81902  eV     2   --> G_6   D_6      
     e(  3 -  4) =     -0.55186  eV     2   --> G_7   D_7      
     e(  5 -  6) =      3.29747  eV     2   --> G_7   D_7      
     e(  7 -  8) =      3.29959  eV     2   --> G_6   D_6      
     e(  9 - 10) =      6.61773  eV     2   --> G_6   D_6      
     e( 11 - 12) =      7.16240  eV     2   --> G_7   D_7      
     e( 13 - 14) =     14.85460  eV     2   --> G_7   D_7      
     e( 15 - 16) =     14.86306  eV     2   --> G_6   D_6      

 **************************************************************************

 **************************************************************************

                    xk=(   0.00000,   0.61283,   0.00000  )

     Band symmetry, C_4v (4mm)  double point group:

     e(  1 -  2) =     -2.70602  eV     2   --> G_6   D_6      
     e(  3 -  4) =     -0.68891  eV     2   --> G_7   D_7      
     e(  5 -  6) =      3.27929  eV     2   --> G_7   D_7      
     e(  7 -  8) =      3.28116  eV     2   --> G_6   D_6      
     e(  9 - 10) =      6.62126  eV     2   --> G_6   D_6      
     e( 11 - 12) =      7.10414  eV     2   --> G_7   D_7      
     e( 13 - 14) =     15.00662  eV     2   --> G_7   D_7      
     e( 15 - 16) =     15.01509  eV     2   --> G_6   D_6      

 **************************************************************************

 **************************************************************************

                    xk=(   0.00000,   0.62461,   0.00000  )

     Band symmetry, C_4v (4mm)  double point group:

     e(  1 -  2) =     -2.59131  eV     2   --> G_6   D_6      
     e(  3 -  4) =     -0.82489  eV     2   --> G_7   D_7      
     e(  5 -  6) =      3.26324  eV     2   --> G_7   D_7      
     e(  7 -  8) =      3.26488  eV     2   --> G_6   D_6      
     e(  9 - 10) =      6.62776  eV     2   --> G_6   D_6      
     e( 11 - 12) =      7.04929  eV     2   --> G_7   D_7      
     e( 13 - 14) =     15.15693  eV     2   --> G_7   D_7      
     e( 15 - 16) =     15.16536  eV     2   --> G_6   D_6      

 **************************************************************************

 **************************************************************************

                    xk=(   0.00000,   0.63640,   0.00000  )

     Band symmetry, C_4v (4mm)  double point group:

     e(  1 -  2) =     -2.47490  eV     2   --> G_6   D_6      
     e(  3 -  4) =     -0.95975  eV     2   --> G_7   D_7      
     e(  5 -  6) =      3.24935  eV     2   --> G_7   D_7      
     e(  7 -  8) =      3.25075  eV     2   --> G_6   D_6      
     e(  9 - 10) =      6.63727  eV     2   --> G_6   D_6      
     e( 11 - 12) =      6.99785  eV     2   --> G_7   D_7      
     e( 13 - 14) =     15.30451  eV     2   --> G_7   D_7      
     e( 15 - 16) =     15.31280  eV     2   --> G_6   D_6      

 **************************************************************************

 **************************************************************************

                    xk=(   0.00000,   0.64818,   0.00000  )

     Band symmetry, C_4v (4mm)  double point group:

     e(  1 -  2) =     -2.35683  eV     2   --> G_6   D_6      
     e(  3 -  4) =     -1.09346  eV     2   --> G_7   D_7      
     e(  5 -  6) =      3.23760  eV     2   --> G_7   D_7      
     e(  7 -  8) =      3.23876  eV     2   --> G_6   D_6      
     e(  9 - 10) =      6.64983  eV     2   --> G_6   D_6      
     e( 11 - 12) =      6.94978  eV     2   --> G_7   D_7      
     e( 13 - 14) =     15.44775  eV     2   --> G_7   D_7      
     e( 15 - 16) =     15.45575  eV     2   --> G_6   D_6      

 **************************************************************************

 **************************************************************************

                    xk=(   0.00000,   0.65997,   0.00000  )

     Band symmetry, C_4v (4mm)  double point group:

     e(  1 -  2) =     -2.23715  eV     2   --> G_6   D_6      
     e(  3 -  4) =     -1.22595  eV     2   --> G_7   D_7      
     e(  5 -  6) =      3.22800  eV     2   --> G_7   D_7      
     e(  7 -  8) =      3.22893  eV     2   --> G_6   D_6      
     e(  9 - 10) =      6.66547  eV     2   --> G_6   D_6      
     e( 11 - 12) =      6.90508  eV     2   --> G_7   D_7      
     e( 13 - 14) =     15.58396  eV     2   --> G_7   D_7      
     e( 15 - 16) =     15.59147  eV     2   --> G_6   D_6      

 **************************************************************************

 **************************************************************************

                    xk=(   0.00000,   0.67175,   0.00000  )

     Band symmetry, C_4v (4mm)  double point group:

     e(  1 -  2) =     -2.11588  eV     2   --> G_6   D_6      
     e(  3 -  4) =     -1.35720  eV     2   --> G_7   D_7      
     e(  5 -  6) =      3.22056  eV     2   --> G_7   D_7      
     e(  7 -  8) =      3.22125  eV     2   --> G_6   D_6      
     e(  9 - 10) =      6.68421  eV     2   --> G_6   D_6      
     e( 11 - 12) =      6.86372  eV     2   --> G_7   D_7      
     e( 13 - 14) =     15.70861  eV     2   --> G_7   D_7      
     e( 15 - 16) =     15.71528  eV     2   --> G_6   D_6      

 **************************************************************************

 **************************************************************************

                    xk=(   0.00000,   0.68354,   0.00000  )

     Band symmetry, C_4v (4mm)  double point group:

     e(  1 -  2) =     -1.99307  eV     2   --> G_6   D_6      
     e(  3 -  4) =     -1.48714  eV     2   --> G_7   D_7      
     e(  5 -  6) =      3.21527  eV     2   --> G_7   D_7      
     e(  7 -  8) =      3.21574  eV     2   --> G_6   D_6      
     e(  9 - 10) =      6.70610  eV     2   --> G_6   D_6      
     e( 11 - 12) =      6.82568  eV     2   --> G_7   D_7      
     e( 13 - 14) =     15.81400  eV     2   --> G_7   D_7      
     e( 15 - 16) =     15.81923  eV     2   --> G_6   D_6      

 **************************************************************************

 **************************************************************************

                    xk=(   0.00000,   0.69532,   0.00000  )

     Band symmetry, C_4v (4mm)  double point group:

     e(  1 -  2) =     -1.86875  eV     2   --> G_6   D_6      
     e(  3 -  4) =     -1.61574  eV     2   --> G_7   D_7      
     e(  5 -  6) =      3.21215  eV     2   --> G_7   D_7      
     e(  7 -  8) =      3.21238  eV     2   --> G_6   D_6      
     e(  9 - 10) =      6.73116  eV     2   --> G_6   D_6      
     e( 11 - 12) =      6.79092  eV     2   --> G_7   D_7      
     e( 13 - 14) =     15.88799  eV     2   --> G_7   D_7      
     e( 15 - 16) =     15.89098  eV     2   --> G_6   D_6      

 **************************************************************************

 **************************************************************************

                    xk=(   0.00000,   0.70711,   0.00000  )

     zone border point and non-symmorphic group 
     symmetry decomposition not available

 **************************************************************************

 **************************************************************************

                    xk=(   0.00295,   0.70711,   0.00295  )

     zone border point and non-symmorphic group 
     symmetry decomposition not available

 **************************************************************************

 **************************************************************************

                    xk=(   0.00589,   0.70711,   0.00589  )

     zone border point and non-symmorphic group 
     symmetry decomposition not available

 **************************************************************************

 **************************************************************************

                    xk=(   0.00884,   0.70711,   0.00884  )

     zone border point and non-symmorphic group 
     symmetry decomposition not available

 **************************************************************************

 **************************************************************************

                    xk=(   0.01179,   0.70711,   0.01179  )

     zone border point and non-symmorphic group 
     symmetry decomposition not available

 **************************************************************************

 **************************************************************************

                    xk=(   0.01473,   0.70711,   0.01473  )

     zone border point and non-symmorphic group 
     symmetry decomposition not available

 **************************************************************************

 **************************************************************************

                    xk=(   0.01768,   0.70711,   0.01768  )

     zone border point and non-symmorphic group 
     symmetry decomposition not available

 **************************************************************************

 **************************************************************************

                    xk=(   0.02062,   0.70711,   0.02062  )

     zone border point and non-symmorphic group 
     symmetry decomposition not available

 **************************************************************************

 **************************************************************************

                    xk=(   0.02357,   0.70711,   0.02357  )

     zone border point and non-symmorphic group 
     symmetry decomposition not available

 **************************************************************************

 **************************************************************************

                    xk=(   0.02652,   0.70711,   0.02652  )

     zone border point and non-symmorphic group 
     symmetry decomposition not available

 **************************************************************************

 **************************************************************************

                    xk=(   0.02946,   0.70711,   0.02946  )

     zone border point and non-symmorphic group 
     symmetry decomposition not available

 **************************************************************************

 **************************************************************************

                    xk=(   0.03241,   0.70711,   0.03241  )

     zone border point and non-symmorphic group 
     symmetry decomposition not available

 **************************************************************************

 **************************************************************************

                    xk=(   0.03536,   0.70711,   0.03536  )

     zone border point and non-symmorphic group 
     symmetry decomposition not available

 **************************************************************************

 **************************************************************************

                    xk=(   0.03830,   0.70711,   0.03830  )

     zone border point and non-symmorphic group 
     symmetry decomposition not available

 **************************************************************************

 **************************************************************************

                    xk=(   0.04125,   0.70711,   0.04125  )

     zone border point and non-symmorphic group 
     symmetry decomposition not available

 **************************************************************************

 **************************************************************************

                    xk=(   0.04419,   0.70711,   0.04419  )

     zone border point and non-symmorphic group 
     symmetry decomposition not available

 **************************************************************************

 **************************************************************************

                    xk=(   0.04714,   0.70711,   0.04714  )

     zone border point and non-symmorphic group 
     symmetry decomposition not available

 **************************************************************************

 **************************************************************************

                    xk=(   0.05009,   0.70711,   0.05009  )

     zone border point and non-symmorphic group 
     symmetry decomposition not available

 **************************************************************************

 **************************************************************************

                    xk=(   0.05303,   0.70711,   0.05303  )

     zone border point and non-symmorphic group 
     symmetry decomposition not available

 **************************************************************************

 **************************************************************************

                    xk=(   0.05598,   0.70711,   0.05598  )

     zone border point and non-symmorphic group 
     symmetry decomposition not available

 **************************************************************************

 **************************************************************************

                    xk=(   0.05893,   0.70711,   0.05893  )

     zone border point and non-symmorphic group 
     symmetry decomposition not available

 **************************************************************************

 **************************************************************************

                    xk=(   0.06187,   0.70711,   0.06187  )

     zone border point and non-symmorphic group 
     symmetry decomposition not available

 **************************************************************************

 **************************************************************************

                    xk=(   0.06482,   0.70711,   0.06482  )

     zone border point and non-symmorphic group 
     symmetry decomposition not available

 **************************************************************************

 **************************************************************************

                    xk=(   0.06776,   0.70711,   0.06776  )

     zone border point and non-symmorphic group 
     symmetry decomposition not available

 **************************************************************************

 **************************************************************************

                    xk=(   0.07071,   0.70711,   0.07071  )

     zone border point and non-symmorphic group 
     symmetry decomposition not available

 **************************************************************************

 **************************************************************************

                    xk=(   0.07366,   0.70711,   0.07366  )

     zone border point and non-symmorphic group 
     symmetry decomposition not available

 **************************************************************************

 **************************************************************************

                    xk=(   0.07660,   0.70711,   0.07660  )

     zone border point and non-symmorphic group 
     symmetry decomposition not available

 **************************************************************************

 **************************************************************************

                    xk=(   0.07955,   0.70711,   0.07955  )

     zone border point and non-symmorphic group 
     symmetry decomposition not available

 **************************************************************************

 **************************************************************************

                    xk=(   0.08250,   0.70711,   0.08250  )

     zone border point and non-symmorphic group 
     symmetry decomposition not available

 **************************************************************************

 **************************************************************************

                    xk=(   0.08544,   0.70711,   0.08544  )

     zone border point and non-symmorphic group 
     symmetry decomposition not available

 **************************************************************************

 **************************************************************************

                    xk=(   0.08839,   0.70711,   0.08839  )

     zone border point and non-symmorphic group 
     symmetry decomposition not available

 **************************************************************************

 **************************************************************************

                    xk=(   0.09133,   0.70711,   0.09133  )

     zone border point and non-symmorphic group 
     symmetry decomposition not available

 **************************************************************************

 **************************************************************************

                    xk=(   0.09428,   0.70711,   0.09428  )

     zone border point and non-symmorphic group 
     symmetry decomposition not available

 **************************************************************************

 **************************************************************************

                    xk=(   0.09723,   0.70711,   0.09723  )

     zone border point and non-symmorphic group 
     symmetry decomposition not available

 **************************************************************************

 **************************************************************************

                    xk=(   0.10017,   0.70711,   0.10017  )

     zone border point and non-symmorphic group 
     symmetry decomposition not available

 **************************************************************************

 **************************************************************************

                    xk=(   0.10312,   0.70711,   0.10312  )

     zone border point and non-symmorphic group 
     symmetry decomposition not available

 **************************************************************************

 **************************************************************************

                    xk=(   0.10607,   0.70711,   0.10607  )

     zone border point and non-symmorphic group 
     symmetry decomposition not available

 **************************************************************************

 **************************************************************************

                    xk=(   0.10901,   0.70711,   0.10901  )

     zone border point and non-symmorphic group 
     symmetry decomposition not available

 **************************************************************************

 **************************************************************************

                    xk=(   0.11196,   0.70711,   0.11196  )

     zone border point and non-symmorphic group 
     symmetry decomposition not available

 **************************************************************************

 **************************************************************************

                    xk=(   0.11490,   0.70711,   0.11490  )

     zone border point and non-symmorphic group 
     symmetry decomposition not available

 **************************************************************************

 **************************************************************************

                    xk=(   0.11785,   0.70711,   0.11785  )

     zone border point and non-symmorphic group 
     symmetry decomposition not available

 **************************************************************************

 **************************************************************************

                    xk=(   0.12080,   0.70711,   0.12080  )

     zone border point and non-symmorphic group 
     symmetry decomposition not available

 **************************************************************************

 **************************************************************************

                    xk=(   0.12374,   0.70711,   0.12374  )

     zone border point and non-symmorphic group 
     symmetry decomposition not available

 **************************************************************************

 **************************************************************************

                    xk=(   0.12669,   0.70711,   0.12669  )

     zone border point and non-symmorphic group 
     symmetry decomposition not available

 **************************************************************************

 **************************************************************************

                    xk=(   0.12964,   0.70711,   0.12964  )

     zone border point and non-symmorphic group 
     symmetry decomposition not available

 **************************************************************************

 **************************************************************************

                    xk=(   0.13258,   0.70711,   0.13258  )

     zone border point and non-symmorphic group 
     symmetry decomposition not available

 **************************************************************************

 **************************************************************************

                    xk=(   0.13553,   0.70711,   0.13553  )

     zone border point and non-symmorphic group 
     symmetry decomposition not available

 **************************************************************************

 **************************************************************************

                    xk=(   0.13848,   0.70711,   0.13848  )

     zone border point and non-symmorphic group 
     symmetry decomposition not available

 **************************************************************************

 **************************************************************************

                    xk=(   0.14142,   0.70711,   0.14142  )

     zone border point and non-symmorphic group 
     symmetry decomposition not available

 **************************************************************************

 **************************************************************************

                    xk=(   0.14437,   0.70711,   0.14437  )

     zone border point and non-symmorphic group 
     symmetry decomposition not available

 **************************************************************************

 **************************************************************************

                    xk=(   0.14731,   0.70711,   0.14731  )

     zone border point and non-symmorphic group 
     symmetry decomposition not available

 **************************************************************************

 **************************************************************************

                    xk=(   0.15026,   0.70711,   0.15026  )

     zone border point and non-symmorphic group 
     symmetry decomposition not available

 **************************************************************************

 **************************************************************************

                    xk=(   0.15321,   0.70711,   0.15321  )

     zone border point and non-symmorphic group 
     symmetry decomposition not available

 **************************************************************************

 **************************************************************************

                    xk=(   0.15615,   0.70711,   0.15615  )

     zone border point and non-symmorphic group 
     symmetry decomposition not available

 **************************************************************************

 **************************************************************************

                    xk=(   0.15910,   0.70711,   0.15910  )

     zone border point and non-symmorphic group 
     symmetry decomposition not available

 **************************************************************************

 **************************************************************************

                    xk=(   0.16205,   0.70711,   0.16205  )

     zone border point and non-symmorphic group 
     symmetry decomposition not available

 **************************************************************************

 **************************************************************************

                    xk=(   0.16499,   0.70711,   0.16499  )

     zone border point and non-symmorphic group 
     symmetry decomposition not available

 **************************************************************************

 **************************************************************************

                    xk=(   0.16794,   0.70711,   0.16794  )

     zone border point and non-symmorphic group 
     symmetry decomposition not available

 **************************************************************************

 **************************************************************************

                    xk=(   0.17088,   0.70711,   0.17088  )

     zone border point and non-symmorphic group 
     symmetry decomposition not available

 **************************************************************************

 **************************************************************************

                    xk=(   0.17383,   0.70711,   0.17383  )

     zone border point and non-symmorphic group 
     symmetry decomposition not available

 **************************************************************************

 **************************************************************************

                    xk=(   0.17678,   0.70711,   0.17678  )

     zone border point and non-symmorphic group 
     symmetry decomposition not available

 **************************************************************************

 **************************************************************************

                    xk=(   0.53033,   0.53033,   0.00000  )

     Band symmetry, C_2v (mm2)  double point group:

     e(  1 -  2) =     -2.15780  eV     2   --> G_5  D_5       
     e(  3 -  4) =     -1.16085  eV     2   --> G_5  D_5       
     e(  5 -  6) =      1.80598  eV     2   --> G_5  D_5       
     e(  7 -  8) =      3.62996  eV     2   --> G_5  D_5       
     e(  9 - 10) =      7.24120  eV     2   --> G_5  D_5       
     e( 11 - 12) =     10.12018  eV     2   --> G_5  D_5       
     e( 13 - 14) =     13.37617  eV     2   --> G_5  D_5       
     e( 15 - 16) =     13.92230  eV     2   --> G_5  D_5       

 **************************************************************************

 **************************************************************************

                    xk=(   0.52149,   0.52149,   0.00000  )

     Band symmetry, C_2v (mm2)  double point group:

     e(  1 -  2) =     -2.21496  eV     2   --> G_5  D_5       
     e(  3 -  4) =     -1.10138  eV     2   --> G_5  D_5       
     e(  5 -  6) =      1.76718  eV     2   --> G_5  D_5       
     e(  7 -  8) =      3.67140  eV     2   --> G_5  D_5       
     e(  9 - 10) =      7.28891  eV     2   --> G_5  D_5       
     e( 11 - 12) =     10.37003  eV     2   --> G_5  D_5       
     e( 13 - 14) =     13.22564  eV     2   --> G_5  D_5       
     e( 15 - 16) =     13.76486  eV     2   --> G_5  D_5       

 **************************************************************************

 **************************************************************************

                    xk=(   0.51265,   0.51265,   0.00000  )

     Band symmetry, C_2v (mm2)  double point group:

     e(  1 -  2) =     -2.27643  eV     2   --> G_5  D_5       
     e(  3 -  4) =     -1.03905  eV     2   --> G_5  D_5       
     e(  5 -  6) =      1.73633  eV     2   --> G_5  D_5       
     e(  7 -  8) =      3.71456  eV     2   --> G_5  D_5       
     e(  9 - 10) =      7.33856  eV     2   --> G_5  D_5       
     e( 11 - 12) =     10.62234  eV     2   --> G_5  D_5       
     e( 13 - 14) =     13.07665  eV     2   --> G_5  D_5       
     e( 15 - 16) =     13.61068  eV     2   --> G_5  D_5       

 **************************************************************************

 **************************************************************************

                    xk=(   0.50381,   0.50381,   0.00000  )

     Band symmetry, C_2v (mm2)  double point group:

     e(  1 -  2) =     -2.34206  eV     2   --> G_5  D_5       
     e(  3 -  4) =     -0.97386  eV     2   --> G_5  D_5       
     e(  5 -  6) =      1.71346  eV     2   --> G_5  D_5       
     e(  7 -  8) =      3.75937  eV     2   --> G_5  D_5       
     e(  9 - 10) =      7.39010  eV     2   --> G_5  D_5       
     e( 11 - 12) =     10.87633  eV     2   --> G_5  D_5       
     e( 13 - 14) =     12.92932  eV     2   --> G_5  D_5       
     e( 15 - 16) =     13.46035  eV     2   --> G_5  D_5       

 **************************************************************************

 **************************************************************************

                    xk=(   0.49497,   0.49497,   0.00000  )

     Band symmetry, C_2v (mm2)  double point group:

     e(  1 -  2) =     -2.41164  eV     2   --> G_5  D_5       
     e(  3 -  4) =     -0.90583  eV     2   --> G_5  D_5       
     e(  5 -  6) =      1.69849  eV     2   --> G_5  D_5       
     e(  7 -  8) =      3.80578  eV     2   --> G_5  D_5       
     e(  9 - 10) =      7.44345  eV     2   --> G_5  D_5       
     e( 11 - 12) =     11.13084  eV     2   --> G_5  D_5       
     e( 13 - 14) =     12.78375  eV     2   --> G_5  D_5       
     e( 15 - 16) =     13.31480  eV     2   --> G_5  D_5       

 **************************************************************************

 **************************************************************************

                    xk=(   0.48614,   0.48614,   0.00000  )

     Band symmetry, C_2v (mm2)  double point group:

     e(  1 -  2) =     -2.48490  eV     2   --> G_5  D_5       
     e(  3 -  4) =     -0.83495  eV     2   --> G_5  D_5       
     e(  5 -  6) =      1.69127  eV     2   --> G_5  D_5       
     e(  7 -  8) =      3.85373  eV     2   --> G_5  D_5       
     e(  9 - 10) =      7.49853  eV     2   --> G_5  D_5       
     e( 11 - 12) =     11.38395  eV     2   --> G_5  D_5       
     e( 13 - 14) =     12.64005  eV     2   --> G_5  D_5       
     e( 15 - 16) =     13.17576  eV     2   --> G_5  D_5       

 **************************************************************************

 **************************************************************************

                    xk=(   0.47730,   0.47730,   0.00000  )

     Band symmetry, C_2v (mm2)  double point group:

     e(  1 -  2) =     -2.56155  eV     2   --> G_5  D_5       
     e(  3 -  4) =     -0.76123  eV     2   --> G_5  D_5       
     e(  5 -  6) =      1.69163  eV     2   --> G_5  D_5       
     e(  7 -  8) =      3.90317  eV     2   --> G_5  D_5       
     e(  9 - 10) =      7.55524  eV     2   --> G_5  D_5       
     e( 11 - 12) =     11.63193  eV     2   --> G_5  D_5       
     e( 13 - 14) =     12.49831  eV     2   --> G_5  D_5       
     e( 15 - 16) =     13.04672  eV     2   --> G_5  D_5       

 **************************************************************************

 **************************************************************************

                    xk=(   0.46846,   0.46846,   0.00000  )

     Band symmetry, C_2v (mm2)  double point group:

     e(  1 -  2) =     -2.64128  eV     2   --> G_5  D_5       
     e(  3 -  4) =     -0.68469  eV     2   --> G_5  D_5       
     e(  5 -  6) =      1.69933  eV     2   --> G_5  D_5       
     e(  7 -  8) =      3.95402  eV     2   --> G_5  D_5       
     e(  9 - 10) =      7.61350  eV     2   --> G_5  D_5       
     e( 11 - 12) =     11.86639  eV     2   --> G_5  D_5       
     e( 13 - 14) =     12.35861  eV     2   --> G_5  D_5       
     e( 15 - 16) =     12.93579  eV     2   --> G_5  D_5       

 **************************************************************************

 **************************************************************************

                    xk=(   0.45962,   0.45962,   0.00000  )

     Band symmetry, C_2v (mm2)  double point group:

     e(  1 -  2) =     -2.72372  eV     2   --> G_5  D_5       
     e(  3 -  4) =     -0.60533  eV     2   --> G_5  D_5       
     e(  5 -  6) =      1.71409  eV     2   --> G_5  D_5       
     e(  7 -  8) =      4.00621  eV     2   --> G_5  D_5       
     e(  9 - 10) =      7.67317  eV     2   --> G_5  D_5       
     e( 11 - 12) =     12.06604  eV     2   --> G_5  D_5       
     e( 13 - 14) =     12.22119  eV     2   --> G_5  D_5       
     e( 15 - 16) =     12.86379  eV     2   --> G_5  D_5       

 **************************************************************************

 **************************************************************************

                    xk=(   0.45078,   0.45078,   0.00000  )

     Band symmetry, C_2v (mm2)  double point group:

     e(  1 -  2) =     -2.80855  eV     2   --> G_5  D_5       
     e(  3 -  4) =     -0.52316  eV     2   --> G_5  D_5       
     e(  5 -  6) =      1.73563  eV     2   --> G_5  D_5       
     e(  7 -  8) =      4.05967  eV     2   --> G_5  D_5       
     e(  9 - 10) =      7.73415  eV     2   --> G_5  D_5       
     e( 11 - 12) =     12.08482  eV     2   --> G_5  D_5       
     e( 13 - 14) =     12.18599  eV     2   --> G_5  D_5       
     e( 15 - 16) =     12.87628  eV     2   --> G_5  D_5       

 **************************************************************************

 **************************************************************************

                    xk=(   0.44194,   0.44194,   0.00000  )

     Band symmetry, C_2v (mm2)  double point group:

     e(  1 -  2) =     -2.89539  eV     2   --> G_5  D_5       
     e(  3 -  4) =     -0.43818  eV     2   --> G_5  D_5       
[...]

 **************************************************************************

                    xk=(   0.35355,   0.68943,   0.01768  )

     zone border point and non-symmorphic group 
     symmetry decomposition not available

 **************************************************************************

 **************************************************************************

                    xk=(   0.35355,   0.69532,   0.01179  )

     zone border point and non-symmorphic group 
     symmetry decomposition not available

 **************************************************************************

 **************************************************************************

                    xk=(   0.35355,   0.70121,   0.00589  )

     zone border point and non-symmorphic group 
     symmetry decomposition not available

 **************************************************************************

 **************************************************************************

                    xk=(   0.35355,   0.70711,   0.00000  )

     zone border point and non-symmorphic group 
     symmetry decomposition not available

 **************************************************************************

 **************************************************************************

                    xk=(   0.34766,   0.70711,   0.00000  )

     zone border point and non-symmorphic group 
     symmetry decomposition not available

 **************************************************************************

 **************************************************************************

                    xk=(   0.34177,   0.70711,   0.00000  )

     zone border point and non-symmorphic group 
     symmetry decomposition not available

 **************************************************************************

 **************************************************************************

                    xk=(   0.33588,   0.70711,   0.00000  )

     zone border point and non-symmorphic group 
     symmetry decomposition not available

 **************************************************************************

 **************************************************************************

                    xk=(   0.32998,   0.70711,   0.00000  )

     zone border point and non-symmorphic group 
     symmetry decomposition not available

 **************************************************************************

 **************************************************************************

                    xk=(   0.32409,   0.70711,   0.00000  )

     zone border point and non-symmorphic group 
     symmetry decomposition not available

 **************************************************************************

 **************************************************************************

                    xk=(   0.31820,   0.70711,   0.00000  )

     zone border point and non-symmorphic group 
     symmetry decomposition not available

 **************************************************************************

 **************************************************************************

                    xk=(   0.31231,   0.70711,   0.00000  )

     zone border point and non-symmorphic group 
     symmetry decomposition not available

 **************************************************************************

 **************************************************************************

                    xk=(   0.30641,   0.70711,   0.00000  )

     zone border point and non-symmorphic group 
     symmetry decomposition not available

 **************************************************************************

 **************************************************************************

                    xk=(   0.30052,   0.70711,   0.00000  )

     zone border point and non-symmorphic group 
     symmetry decomposition not available

 **************************************************************************

 **************************************************************************

                    xk=(   0.29463,   0.70711,  -0.00000  )

     zone border point and non-symmorphic group 
     symmetry decomposition not available

 **************************************************************************

 **************************************************************************

                    xk=(   0.28874,   0.70711,   0.00000  )

     zone border point and non-symmorphic group 
     symmetry decomposition not available

 **************************************************************************

 **************************************************************************

                    xk=(   0.28284,   0.70711,   0.00000  )

     zone border point and non-symmorphic group 
     symmetry decomposition not available

 **************************************************************************

 **************************************************************************

                    xk=(   0.27695,   0.70711,   0.00000  )

     zone border point and non-symmorphic group 
     symmetry decomposition not available

 **************************************************************************

 **************************************************************************

                    xk=(   0.27106,   0.70711,   0.00000  )

     zone border point and non-symmorphic group 
     symmetry decomposition not available

 **************************************************************************

 **************************************************************************

                    xk=(   0.26517,   0.70711,   0.00000  )

     zone border point and non-symmorphic group 
     symmetry decomposition not available

 **************************************************************************

 **************************************************************************

                    xk=(   0.25927,   0.70711,  -0.00000  )

     zone border point and non-symmorphic group 
     symmetry decomposition not available

 **************************************************************************

 **************************************************************************

                    xk=(   0.25338,   0.70711,   0.00000  )

     zone border point and non-symmorphic group 
     symmetry decomposition not available

 **************************************************************************

 **************************************************************************

                    xk=(   0.24749,   0.70711,   0.00000  )

     zone border point and non-symmorphic group 
     symmetry decomposition not available

 **************************************************************************

 **************************************************************************

                    xk=(   0.24159,   0.70711,  -0.00000  )

     zone border point and non-symmorphic group 
     symmetry decomposition not available

 **************************************************************************

 **************************************************************************

                    xk=(   0.23570,   0.70711,   0.00000  )

     zone border point and non-symmorphic group 
     symmetry decomposition not available

 **************************************************************************

 **************************************************************************

                    xk=(   0.22981,   0.70711,   0.00000  )

     zone border point and non-symmorphic group 
     symmetry decomposition not available

 **************************************************************************

 **************************************************************************

                    xk=(   0.22392,   0.70711,   0.00000  )

     zone border point and non-symmorphic group 
     symmetry decomposition not available

 **************************************************************************

 **************************************************************************

                    xk=(   0.21802,   0.70711,   0.00000  )

     zone border point and non-symmorphic group 
     symmetry decomposition not available

 **************************************************************************

 **************************************************************************

                    xk=(   0.21213,   0.70711,   0.00000  )

     zone border point and non-symmorphic group 
     symmetry decomposition not available

 **************************************************************************

 **************************************************************************

                    xk=(   0.20624,   0.70711,  -0.00000  )

     zone border point and non-symmorphic group 
     symmetry decomposition not available

 **************************************************************************

 **************************************************************************

                    xk=(   0.20035,   0.70711,   0.00000  )

     zone border point and non-symmorphic group 
     symmetry decomposition not available

 **************************************************************************

 **************************************************************************

                    xk=(   0.19445,   0.70711,   0.00000  )

     zone border point and non-symmorphic group 
     symmetry decomposition not available

 **************************************************************************

 **************************************************************************

                    xk=(   0.18856,   0.70711,   0.00000  )

     zone border point and non-symmorphic group 
     symmetry decomposition not available

 **************************************************************************

 **************************************************************************

                    xk=(   0.18267,   0.70711,   0.00000  )

     zone border point and non-symmorphic group 
     symmetry decomposition not available

 **************************************************************************

 **************************************************************************

                    xk=(   0.17678,   0.70711,   0.00000  )

     zone border point and non-symmorphic group 
     symmetry decomposition not available

 **************************************************************************

 **************************************************************************

                    xk=(   0.17088,   0.70711,   0.00000  )

     zone border point and non-symmorphic group 
     symmetry decomposition not available

 **************************************************************************

 **************************************************************************

                    xk=(   0.16499,   0.70711,   0.00000  )

     zone border point and non-symmorphic group 
     symmetry decomposition not available

 **************************************************************************

 **************************************************************************

                    xk=(   0.15910,   0.70711,   0.00000  )

     zone border point and non-symmorphic group 
     symmetry decomposition not available

 **************************************************************************

 **************************************************************************

                    xk=(   0.15321,   0.70711,  -0.00000  )

     zone border point and non-symmorphic group 
     symmetry decomposition not available

 **************************************************************************

 **************************************************************************

                    xk=(   0.14731,   0.70711,   0.00000  )

     zone border point and non-symmorphic group 
     symmetry decomposition not available

 **************************************************************************

 **************************************************************************

                    xk=(   0.14142,   0.70711,   0.00000  )

     zone border point and non-symmorphic group 
     symmetry decomposition not available

 **************************************************************************

 **************************************************************************

                    xk=(   0.13553,   0.70711,   0.00000  )

     zone border point and non-symmorphic group 
     symmetry decomposition not available

 **************************************************************************

 **************************************************************************

                    xk=(   0.12964,   0.70711,   0.00000  )

     zone border point and non-symmorphic group 
     symmetry decomposition not available

 **************************************************************************

 **************************************************************************

                    xk=(   0.12374,   0.70711,  -0.00000  )

     zone border point and non-symmorphic group 
     symmetry decomposition not available

 **************************************************************************

 **************************************************************************

                    xk=(   0.11785,   0.70711,   0.00000  )

     zone border point and non-symmorphic group 
     symmetry decomposition not available

 **************************************************************************

 **************************************************************************

                    xk=(   0.11196,   0.70711,   0.00000  )

     zone border point and non-symmorphic group 
     symmetry decomposition not available

 **************************************************************************

 **************************************************************************

                    xk=(   0.10607,   0.70711,   0.00000  )

     zone border point and non-symmorphic group 
     symmetry decomposition not available

 **************************************************************************

 **************************************************************************

                    xk=(   0.10017,   0.70711,   0.00000  )

     zone border point and non-symmorphic group 
     symmetry decomposition not available

 **************************************************************************

 **************************************************************************

                    xk=(   0.09428,   0.70711,   0.00000  )

     zone border point and non-symmorphic group 
     symmetry decomposition not available

 **************************************************************************

 **************************************************************************

                    xk=(   0.08839,   0.70711,   0.00000  )

     zone border point and non-symmorphic group 
     symmetry decomposition not available

 **************************************************************************

 **************************************************************************

                    xk=(   0.08250,   0.70711,   0.00000  )

     zone border point and non-symmorphic group 
     symmetry decomposition not available

 **************************************************************************

 **************************************************************************

                    xk=(   0.07660,   0.70711,   0.00000  )

     zone border point and non-symmorphic group 
     symmetry decomposition not available

 **************************************************************************

 **************************************************************************

                    xk=(   0.07071,   0.70711,  -0.00000  )

     zone border point and non-symmorphic group 
     symmetry decomposition not available

 **************************************************************************

 **************************************************************************

                    xk=(   0.06482,   0.70711,  -0.00000  )

     zone border point and non-symmorphic group 
     symmetry decomposition not available

 **************************************************************************

 **************************************************************************

                    xk=(   0.05893,   0.70711,   0.00000  )

     zone border point and non-symmorphic group 
     symmetry decomposition not available

 **************************************************************************

 **************************************************************************

                    xk=(   0.05303,   0.70711,   0.00000  )

     zone border point and non-symmorphic group 
     symmetry decomposition not available

 **************************************************************************

 **************************************************************************

                    xk=(   0.04714,   0.70711,   0.00000  )

     zone border point and non-symmorphic group 
     symmetry decomposition not available

 **************************************************************************

 **************************************************************************

                    xk=(   0.04125,   0.70711,   0.00000  )

     zone border point and non-symmorphic group 
     symmetry decomposition not available

 **************************************************************************

 **************************************************************************

                    xk=(   0.03536,   0.70711,   0.00000  )

     zone border point and non-symmorphic group 
     symmetry decomposition not available

 **************************************************************************

 **************************************************************************

                    xk=(   0.02946,   0.70711,  -0.00000  )

     zone border point and non-symmorphic group 
     symmetry decomposition not available

 **************************************************************************

 **************************************************************************

                    xk=(   0.02357,   0.70711,   0.00000  )

     zone border point and non-symmorphic group 
     symmetry decomposition not available

 **************************************************************************

 **************************************************************************

                    xk=(   0.01768,   0.70711,   0.00000  )

     zone border point and non-symmorphic group 
     symmetry decomposition not available

 **************************************************************************

 **************************************************************************

                    xk=(   0.01179,   0.70711,   0.00000  )

     zone border point and non-symmorphic group 
     symmetry decomposition not available

 **************************************************************************

 **************************************************************************

                    xk=(   0.00589,   0.70711,   0.00000  )

     zone border point and non-symmorphic group 
     symmetry decomposition not available

 **************************************************************************

 **************************************************************************

                    xk=(   0.00000,   0.70711,   0.00000  )

     zone border point and non-symmorphic group 
     symmetry decomposition not available

 **************************************************************************
 
     BANDS        :    50.59s CPU        52.06s WALL

 
   This run was terminated on:  18:34:34  23Mar2020            

=------------------------------------------------------------------------------=
   JOB DONE.
=------------------------------------------------------------------------------=
