mpijob CMD    : mpirun -f /tmp/mpiexec.params.k014709.30250
mpijob PARAMS : -d /home/k0147/k014709/research/dft/get_rep/program/example/Si_soc
        r1i0n18 24 omplace -nt 1
        "/home/k0147/k014709/research/dft/qe-6.2/bin/pw.x"

SGI MPT Placement option
--------------------------
omplace -nt 1

Node   MPI
------------
r1i0n18 24


     Program PWSCF v.6.2 (svn rev. 13949:13950) starts on 23Mar2020 at 18:32:41 

     This program is part of the open-source Quantum ESPRESSO suite
     for quantum simulation of materials; please cite
         "P. Giannozzi et al., J. Phys.:Condens. Matter 21 395502 (2009);
         "P. Giannozzi et al., J. Phys.:Condens. Matter 29 465901 (2017);
          URL http://www.quantum-espresso.org", 
     in publications or presentations arising from this work. More details at
     http://www.quantum-espresso.org/quote

     Parallel version (MPI), running on    24 processors

     MPI processes distributed on     1 nodes
     R & G space division:  proc/nbgrp/npool/nimage =      24
     Waiting for input...
     Reading input from standard input

     Current dimensions of program PWSCF are:
     Max number of different atomic species (ntypx) = 10
     Max number of k-points (npk) =  40000
     Max angular momentum in pseudopotentials (lmaxx) =  3

     Subspace diagonalization in iterative solution of the eigenvalue problem:
     a serial algorithm will be used

 
     Parallelization info
     --------------------
     sticks:   dense  smooth     PW     G-vecs:    dense   smooth      PW
     Min          61      61     18                 1553     1553     241
     Max          62      62     19                 1556     1556     244
     Sum        1483    1483    433                37309    37309    5817
 


     bravais-lattice index     =            0
     lattice parameter (alat)  =       7.3086  a.u.
     unit-cell volume          =     276.0515 (a.u.)^3
     number of atoms/cell      =            2
     number of atomic types    =            1
     number of electrons       =         8.00
     number of Kohn-Sham states=           16
     kinetic-energy cutoff     =     100.0000  Ry
     charge density cutoff     =     400.0000  Ry
     convergence threshold     =      1.0E-08
     mixing beta               =       0.3000
     number of iterations used =            8  plain     mixing
     Exchange-correlation      = PBE ( 1  4  3  4 0 0)
     Non magnetic calculation with spin-orbit


     celldm(1)=   7.308615  celldm(2)=   0.000000  celldm(3)=   0.000000
     celldm(4)=   0.000000  celldm(5)=   0.000000  celldm(6)=   0.000000

     crystal axes: (cart. coord. in units of alat)
               a(1) = (   0.000000   0.707107   0.707107 )  
               a(2) = (   0.707107   0.000000   0.707107 )  
               a(3) = (   0.707107   0.707107   0.000000 )  

     reciprocal axes: (cart. coord. in units 2 pi/alat)
               b(1) = ( -0.707107  0.707107  0.707107 )  
               b(2) = (  0.707107 -0.707107  0.707107 )  
               b(3) = (  0.707107  0.707107 -0.707107 )  


     PseudoPot. # 1 for Si read from file:
     ~/research/dft/ONCVPSP-master/abinit/Si_ONCV_PBE_fr.upf
     MD5 check sum: Not computed, couldn't open file
     Pseudo is Norm-conserving + core correction, Zval =  4.0
     Generated using ONCVPSP code by D. R. Hamann
     Using radial grid of 1528 points, 10 beta functions with: 
                l(1) =   0
                l(2) =   0
                l(3) =   1
                l(4) =   1
                l(5) =   1
                l(6) =   1
                l(7) =   2
                l(8) =   2
                l(9) =   2
               l(10) =   2

     atomic species   valence    mass     pseudopotential
        Si             4.00    28.08550     Si( 1.00)

     48 Sym. Ops., with inversion, found (24 have fractional translation)



   Cartesian axes

     site n.     atom                  positions (alat units)
         1           Si  tau(   1) = (   0.0000000   0.0000000   0.0000000  )
         2           Si  tau(   2) = (   0.3535534   1.0606602   1.0606602  )

     number of k points=    29  Methfessel-Paxton smearing, width (Ry)=  0.0100
                       cart. coord. in units 2pi/alat
        k(    1) = (   0.0000000   0.0000000   0.0000000), wk =   0.0019531
        k(    2) = (   0.0883883   0.0883883  -0.0883883), wk =   0.0156250
        k(    3) = (   0.1767767   0.1767767  -0.1767767), wk =   0.0156250
        k(    4) = (   0.2651650   0.2651650  -0.2651650), wk =   0.0156250
        k(    5) = (  -0.3535534  -0.3535534   0.3535534), wk =   0.0078125
        k(    6) = (   0.1767767   0.0000000   0.0000000), wk =   0.0117188
        k(    7) = (   0.2651650   0.0883883  -0.0883883), wk =   0.0468750
        k(    8) = (   0.3535534   0.1767767  -0.1767767), wk =   0.0468750
        k(    9) = (  -0.2651650  -0.4419417   0.4419417), wk =   0.0468750
        k(   10) = (  -0.1767767  -0.3535534   0.3535534), wk =   0.0468750
        k(   11) = (  -0.0883883  -0.2651650   0.2651650), wk =   0.0468750
        k(   12) = (   0.0000000  -0.1767767   0.1767767), wk =   0.0234375
        k(   13) = (   0.3535534   0.0000000   0.0000000), wk =   0.0117188
        k(   14) = (   0.4419417   0.0883883  -0.0883883), wk =   0.0468750
        k(   15) = (  -0.1767767  -0.5303301   0.5303301), wk =   0.0468750
        k(   16) = (  -0.0883883  -0.4419417   0.4419417), wk =   0.0468750
        k(   17) = (   0.0000000  -0.3535534   0.3535534), wk =   0.0234375
        k(   18) = (   0.5303301   0.0000000   0.0000000), wk =   0.0117188
        k(   19) = (  -0.0883883  -0.6187184   0.6187184), wk =   0.0468750
        k(   20) = (   0.0000000  -0.5303301   0.5303301), wk =   0.0234375
        k(   21) = (  -0.7071068   0.0000000   0.0000000), wk =   0.0058594
        k(   22) = (   0.3535534   0.1767767   0.0000000), wk =   0.0468750
        k(   23) = (  -0.2651650  -0.4419417   0.6187184), wk =   0.0937500
        k(   24) = (  -0.1767767  -0.3535534   0.5303301), wk =   0.0468750
        k(   25) = (  -0.1767767  -0.5303301   0.7071068), wk =   0.0468750
        k(   26) = (  -0.0883883  -0.4419417   0.6187184), wk =   0.0937500
        k(   27) = (   0.0000000  -0.3535534   0.5303301), wk =   0.0468750
        k(   28) = (  -0.7071068   0.1767767   0.0000000), wk =   0.0234375
        k(   29) = (  -0.7071068   0.3535534   0.0000000), wk =   0.0117188

     Dense  grid:    37309 G-vectors     FFT dimensions: (  48,  48,  48)

     Estimated max dynamical RAM per process >      11.83 MB

     Estimated total dynamical RAM >     283.81 MB

     Initial potential from superposition of free atoms

     starting charge    7.99877, renormalised to    8.00000
     Starting wfc are   16 randomized atomic wfcs

     total cpu time spent up to now is        0.6 secs

     Self-consistent Calculation

     iteration #  1     ecut=   100.00 Ry     beta= 0.30
     Davidson diagonalization with overlap
     ethr =  1.00E-02,  avg # of iterations =  3.8

     Threshold (ethr) on eigenvalues was too large:
     Diagonalizing with lowered threshold

     Davidson diagonalization with overlap
     ethr =  7.01E-04,  avg # of iterations =  1.1

     total cpu time spent up to now is        2.3 secs

     total energy              =     -16.92835562 Ry
     Harris-Foulkes estimate   =     -16.93604698 Ry
     estimated scf accuracy    <       0.05489324 Ry

     iteration #  2     ecut=   100.00 Ry     beta= 0.30
     Davidson diagonalization with overlap
     ethr =  6.86E-04,  avg # of iterations =  1.0

     total cpu time spent up to now is        2.9 secs

     total energy              =     -16.92320517 Ry
     Harris-Foulkes estimate   =     -16.92882391 Ry
     estimated scf accuracy    <       0.02311082 Ry

     iteration #  3     ecut=   100.00 Ry     beta= 0.30
     Davidson diagonalization with overlap
     ethr =  2.89E-04,  avg # of iterations =  1.0

     total cpu time spent up to now is        3.5 secs

     total energy              =     -16.92435680 Ry
     Harris-Foulkes estimate   =     -16.92441191 Ry
     estimated scf accuracy    <       0.00029532 Ry

     iteration #  4     ecut=   100.00 Ry     beta= 0.30
     Davidson diagonalization with overlap
     ethr =  3.69E-06,  avg # of iterations =  3.9

     total cpu time spent up to now is        4.4 secs

     total energy              =     -16.92439662 Ry
     Harris-Foulkes estimate   =     -16.92439545 Ry
     estimated scf accuracy    <       0.00000400 Ry

     iteration #  5     ecut=   100.00 Ry     beta= 0.30
     Davidson diagonalization with overlap
     ethr =  5.00E-08,  avg # of iterations =  2.2

     total cpu time spent up to now is        5.1 secs

     total energy              =     -16.92439801 Ry
     Harris-Foulkes estimate   =     -16.92439774 Ry
     estimated scf accuracy    <       0.00000030 Ry

     iteration #  6     ecut=   100.00 Ry     beta= 0.30
     Davidson diagonalization with overlap
     ethr =  3.78E-09,  avg # of iterations =  2.0

     total cpu time spent up to now is        5.8 secs

     total energy              =     -16.92439804 Ry
     Harris-Foulkes estimate   =     -16.92439804 Ry
     estimated scf accuracy    <       0.00000007 Ry

     iteration #  7     ecut=   100.00 Ry     beta= 0.30
     Davidson diagonalization with overlap
     ethr =  8.62E-10,  avg # of iterations =  1.8

     total cpu time spent up to now is        6.5 secs

     End of self-consistent calculation

          k = 0.0000 0.0000 0.0000 (  4645 PWs)   bands (ev):

    -5.8082  -5.8082   5.9785   5.9785   6.0258   6.0258   6.0258   6.0258
     8.5334   8.5334   8.5681   8.5681   8.5681   8.5681   9.1078   9.1078

          k = 0.0884 0.0884-0.0884 (  4678 PWs)   bands (ev):

    -5.6079  -5.6079   4.4138   4.4138   5.7110   5.7110   5.7419   5.7419
     8.4380   8.4380   8.9611   8.9611   8.9847   8.9847  10.5180  10.5180

          k = 0.1768 0.1768-0.1768 (  4669 PWs)   bands (ev):

    -5.0240  -5.0240   2.1173   2.1173   5.2469   5.2469   5.2778   5.2778
     7.9545   7.9545   9.4815   9.4815   9.5030   9.5030  12.7401  12.7401

          k = 0.2652 0.2652-0.2652 (  4678 PWs)   bands (ev):

    -4.1503  -4.1503   0.1334   0.1334   4.9233   4.9233   4.9544   4.9544
     7.5904   7.5904   9.4497   9.4497   9.4660   9.4660  13.8436  13.8436

          k =-0.3536-0.3536 0.3536 (  4626 PWs)   bands (ev):

    -3.5317  -3.5317  -0.8641  -0.8641   4.8124   4.8124   4.8436   4.8436
     7.4623   7.4623   9.3479   9.3479   9.3624   9.3624  13.7117  13.7117

          k = 0.1768 0.0000 0.0000 (  4673 PWs)   bands (ev):

    -5.5404  -5.5404   4.6511   4.6511   5.2127   5.2127   5.2298   5.2298
     8.0173   8.0173   9.6694   9.6694   9.6776   9.6776  10.2030  10.2030

          k = 0.2652 0.0884-0.0884 (  4672 PWs)   bands (ev):

    -5.0807  -5.0807   2.7973   2.7973   4.7160   4.7160   4.7827   4.7827
     8.1485   8.1485   9.6186   9.6186  10.4299  10.4299  10.7477  10.7477

          k = 0.3536 0.1768-0.1768 (  4677 PWs)   bands (ev):

    -4.2829  -4.2829   0.7758   0.7758   4.1962   4.1962   4.4530   4.4530
     8.2308   8.2308   9.5921   9.5921  10.4463  10.4463  11.4478  11.4478

          k =-0.2652-0.4419 0.4419 (  4650 PWs)   bands (ev):

    -3.4448  -3.4448  -0.6538  -0.6538   3.7593   3.7593   4.4745   4.4745
     8.1640   8.1640   9.4928   9.4928  10.0992  10.0992  13.3084  13.3084

          k =-0.1768-0.3536 0.3536 (  4662 PWs)   bands (ev):

    -3.6818  -3.6818  -0.2929  -0.2929   3.5843   3.5843   4.7640   4.7640
     8.3113   8.3113   9.6141   9.6141   9.8687   9.8687  13.8272  13.8272

          k =-0.0884-0.2652 0.2652 (  4669 PWs)   bands (ev):

    -4.5826  -4.5826   1.4219   1.4219   3.7391   3.7391   5.2459   5.2459
     8.6522   8.6522   9.6625   9.6625   9.8427   9.8427  12.2106  12.2106

          k = 0.0000-0.1768 0.1768 (  4683 PWs)   bands (ev):

    -5.2782  -5.2782   3.3286   3.3286   4.4174   4.4174   5.7189   5.7189
     8.9609   8.9609   9.1093   9.1093   9.3374   9.3374  11.4235  11.4235

          k = 0.3536 0.0000 0.0000 (  4664 PWs)   bands (ev):

    -4.7466  -4.7466   2.4832   2.4832   4.1533   4.1533   4.1618   4.1618
     7.1561   7.1561   9.1418   9.1418  11.6904  11.6904  11.6926  11.6926

          k = 0.4419 0.0884-0.0884 (  4666 PWs)   bands (ev):

    -4.0507  -4.0507   1.0868   1.0868   3.3911   3.3911   3.8442   3.8442
     7.3767   7.3767   8.9103   8.9103  11.9085  11.9085  12.2102  12.2102

          k =-0.1768-0.5303 0.5303 (  4645 PWs)   bands (ev):

    -3.1466  -3.1466  -0.3205  -0.3205   2.5431   2.5431   3.8460   3.8460
     7.5480   7.5480  10.4405  10.4405  11.6440  11.6440  11.8817  11.8817

          k =-0.0884-0.4419 0.4419 (  4653 PWs)   bands (ev):

    -2.9497  -2.9497  -0.5702  -0.5702   2.0959   2.0959   4.1574   4.1574
     7.8612   7.8612  11.4075  11.4075  11.4457  11.4457  12.8854  12.8854

          k = 0.0000-0.3536 0.3536 (  4672 PWs)   bands (ev):

    -3.8059  -3.8059   0.5632   0.5632   2.3369   2.3369   4.7042   4.7042
     8.4401   8.4401  10.7476  10.7476  11.0938  11.0938  12.0349  12.0349

          k = 0.5303 0.0000 0.0000 (  4672 PWs)   bands (ev):

    -3.4592  -3.4592   0.2899   0.2899   3.4510   3.4510   3.4546   3.4546
     6.6569   6.6569   7.5842   7.5842  13.9324  13.9324  13.9400  13.9400

          k =-0.0884-0.6187 0.6187 (  4669 PWs)   bands (ev):

    -2.5806  -2.5806  -0.7761  -0.7761   2.6477   2.6477   3.3775   3.3775
     6.9383   6.9383   7.9927   7.9927  14.1735  14.1735  14.2268  14.2268

          k = 0.0000-0.5303 0.5303 (  4660 PWs)   bands (ev):

    -2.1579  -2.1579  -1.1609  -1.1609   1.8059   1.8059   3.6299   3.6299
     7.2411   7.2411  10.1201  10.1201  13.3761  13.3761  13.9222  13.9222

          k =-0.7071 0.0000 0.0000 (  4720 PWs)   bands (ev):

    -1.7430  -1.7430  -1.7430  -1.7430   3.2111   3.2111   3.2111   3.2111
     6.7594   6.7594   6.7594   6.7594  15.9161  15.9161  15.9161  15.9161

          k = 0.3536 0.1768 0.0000 (  4681 PWs)   bands (ev):

    -4.5045  -4.5045   1.7341   1.7341   3.3538   3.3538   4.6062   4.6062
     8.4477   8.4477   9.8218   9.8218  10.2154  10.2154  11.4442  11.4442

          k =-0.2652-0.4419 0.6187 (  4660 PWs)   bands (ev):

    -3.6358  -3.6358   0.2152   0.2152   2.7493   2.7493   4.1186   4.1186
     8.8688   8.8688   9.5343   9.5343  10.9818  10.9818  11.8838  11.8838

          k =-0.1768-0.3536 0.5303 (  4638 PWs)   bands (ev):

    -3.0023  -3.0023  -0.7036  -0.7036   2.6177   2.6177   3.8956   3.8956
     9.0240   9.0240   9.1562   9.1562  11.8492  11.8492  13.0770  13.0770

          k =-0.1768-0.5303 0.7071 (  4641 PWs)   bands (ev):

    -3.2661  -3.2661   0.0748   0.0748   2.7179   2.7179   3.3101   3.3101
     7.9621   7.9621   8.6669   8.6669  11.6870  11.6870  13.8881  13.8881

          k =-0.0884-0.4419 0.6187 (  4656 PWs)   bands (ev):

    -2.4133  -2.4133  -0.8732  -0.8732   2.0381   2.0381   3.1142   3.1142
     8.4021   8.4021  10.2787  10.2787  11.2131  11.2131  13.3516  13.3516

          k = 0.0000-0.3536 0.5303 (  4659 PWs)   bands (ev):

    -2.7567  -2.7567  -0.5155  -0.5155   1.8758   1.8758   3.4808   3.4808
     8.8709   8.8709  10.5211  10.5211  11.1698  11.1698  12.9676  12.9676

          k =-0.7071 0.1768 0.0000 (  4668 PWs)   bands (ev):

    -1.6712  -1.6712  -1.6677  -1.6677   2.6617   2.6617   2.6717   2.6717
     7.9904   7.9904   7.9965   7.9965  13.7463  13.7463  13.7571  13.7571

          k =-0.7071 0.3536 0.0000 (  4648 PWs)   bands (ev):

    -1.5915  -1.5915  -1.5861  -1.5861   2.2389   2.2389   2.2516   2.2516
    10.2834  10.2834  10.2836  10.2836  10.9201  10.9201  10.9368  10.9368

     the Fermi energy is     6.5573 ev

!    total energy              =     -16.92439805 Ry
     Harris-Foulkes estimate   =     -16.92439805 Ry
     estimated scf accuracy    <          5.4E-10 Ry

     The total energy is the sum of the following terms:

     one-electron contribution =       4.79888182 Ry
     hartree contribution      =       1.11480179 Ry
     xc contribution           =      -6.16060911 Ry
     ewald contribution        =     -16.67748714 Ry
     smearing contrib. (-TS)   =       0.00001458 Ry

     convergence has been achieved in   7 iterations

     Forces acting on atoms (cartesian axes, Ry/au):

     atom    1 type  1   force =     0.00000000    0.00000000   -0.00000000
     atom    2 type  1   force =    -0.00000000   -0.00000000    0.00000000

     Total force =     0.000000     Total SCF correction =     0.000000


     Computing stress (Cartesian axis) and pressure

     Message from routine stres:
     noncollinear stress + GGA not implemented

     Writing output data file Si.save
 
     init_run     :      0.23s CPU      0.31s WALL (       1 calls)
     electrons    :      5.69s CPU      5.96s WALL (       1 calls)
     forces       :      0.14s CPU      0.14s WALL (       1 calls)

     Called by init_run:
     wfcinit      :      0.20s CPU      0.23s WALL (       1 calls)
     potinit      :      0.01s CPU      0.01s WALL (       1 calls)

     Called by electrons:
     c_bands      :      4.91s CPU      5.14s WALL (       8 calls)
     sum_band     :      0.73s CPU      0.76s WALL (       8 calls)
     v_of_rho     :      0.03s CPU      0.02s WALL (       8 calls)
     mix_rho      :      0.01s CPU      0.01s WALL (       8 calls)

     Called by c_bands:
     init_us_2    :      0.05s CPU      0.06s WALL (     522 calls)
     cegterg      :      3.89s CPU      4.15s WALL (     232 calls)

     Called by sum_band:

     Called by *egterg:
     h_psi        :      3.50s CPU      3.74s WALL (     749 calls)
     g_psi        :      0.02s CPU      0.02s WALL (     488 calls)
     cdiaghg      :      0.28s CPU      0.32s WALL (     691 calls)

     Called by h_psi:
     h_psi:pot    :      3.49s CPU      3.73s WALL (     749 calls)
     h_psi:calbec :      0.11s CPU      0.14s WALL (     749 calls)
     vloc_psi     :      3.20s CPU      3.41s WALL (     749 calls)
     add_vuspsi   :      0.18s CPU      0.17s WALL (     749 calls)

     General routines
     calbec       :      0.14s CPU      0.17s WALL (     865 calls)
     fft          :      0.02s CPU      0.05s WALL (     148 calls)
     fftw         :      3.53s CPU      3.78s WALL (   44848 calls)
 
     Parallel routines
     fft_scatt_xy :      0.19s CPU      0.27s WALL (   44996 calls)
     fft_scatt_yz :      1.80s CPU      1.95s WALL (   44996 calls)
 
     PWSCF        :     6.62s CPU         7.46s WALL

 
   This run was terminated on:  18:32:49  23Mar2020            

=------------------------------------------------------------------------------=
   JOB DONE.
=------------------------------------------------------------------------------=
