mpijob CMD    : mpirun -f /tmp/mpiexec.params.k050801.116217
mpijob PARAMS : -d /home/k0508/k050801/qeirreps/ver_5/qeirreps/bilbao_sample/NaCdAs
        r1i5n0 10 omplace -nt 4 "/home/k0508/k050801/qe-6.6/bin/bands.x"

SGI MPT Placement option
--------------------------
omplace -nt 4

Node   MPI
------------
r1i5n0 10


     Program BANDS v.6.6 starts on 28Nov2020 at  7:34:39 

     This program is part of the open-source Quantum ESPRESSO suite
     for quantum simulation of materials; please cite
         "P. Giannozzi et al., J. Phys.:Condens. Matter 21 395502 (2009);
         "P. Giannozzi et al., J. Phys.:Condens. Matter 29 465901 (2017);
          URL http://www.quantum-espresso.org", 
     in publications or presentations arising from this work. More details at
     http://www.quantum-espresso.org/quote

     Parallel version (MPI), running on    10 processors

     MPI processes distributed on     1 nodes
     R & G space division:  proc/nbgrp/npool/nimage =      10
     Fft bands division:     nmany     =       1

     Reading xml data from directory:

     /work/k0508/k050801/NaCdAs/band/NaCdAs.save/

     IMPORTANT: XC functional enforced from input :
     Exchange-correlation= PBE
                           (   1   4   3   4   0   0   0)
     Any further DFT definition will be discarded
     Please, verify this is what you really want

 
     Parallelization info
     --------------------
     sticks:   dense  smooth     PW     G-vecs:    dense   smooth      PW
     Min         393     393    107                25773    25773    3703
     Max         394     394    108                25776    25776    3706
     Sum        3935    3935   1077               257753   257753   37043
 
     Reading collected, re-writing distributed wavefunctions
     high-symmetry point:  0.0000 0.0000 0.0000   x coordinate   0.0000
     high-symmetry point:  0.5000 0.0000 0.0000   x coordinate   0.5000
     high-symmetry point:  0.5000 0.8464 0.0000   x coordinate   1.3464
     high-symmetry point:  0.0000 0.8464 0.0000   x coordinate   1.8464
     high-symmetry point:  0.0000 0.0000 0.0000   x coordinate   2.6928
     high-symmetry point:  0.0000 0.0000 0.4676   x coordinate   3.1604
     high-symmetry point:  0.5000 0.0000 0.4676   x coordinate   3.6604
     high-symmetry point:  0.5000 0.8464 0.4676   x coordinate   4.5068
     high-symmetry point:  0.0000 0.8464 0.4676   x coordinate   5.0068
     high-symmetry point:  0.0000 0.0000 0.4676   x coordinate   5.8532
     high-symmetry point:  0.5000 0.0000 0.0000   x coordinate   5.8532
     high-symmetry point:  0.5000 0.0000 0.4676   x coordinate   6.3208
     high-symmetry point:  0.0000 0.8464 0.0000   x coordinate   6.3208
     high-symmetry point:  0.0000 0.8464 0.4676   x coordinate   6.7885
     high-symmetry point:  0.5000 0.8464 0.0000   x coordinate   6.7885
     high-symmetry point:  0.5000 0.8464 0.4676   x coordinate   7.2561

     Plottable bands (eV) written to file NaCdAs.band.gnu
     Bands written to file NaCdAs.band

 **************************************************************************

                    xk=(   0.00000,   0.00000,   0.00000  )

     double point group D_2h (mmm) 
     there are 10 classes and  2 irreducible representations
     the character table:

       E     -E     C2    C2'  C2''  i     -i     s_v   s_v' s_v''
                   -C2   -C2'  -C2''             -s_v  -s_v' -s_v'
G_5+   2.00 -2.00  0.00  0.00  0.00  2.00 -2.00  0.00  0.00  0.00
G_5-   2.00 -2.00  0.00  0.00  0.00 -2.00  2.00  0.00  0.00  0.00

     the symmetry operations in each class and the name of the first element:

     E             1
                                                                 
     -E           -1
                                                                 
      C2  -C2      2   -2
                                                                 
      C2' -C2'     4   -4
                                                                 
     C2'' -C2''    3   -3
                                                                 
     i             5
                                                                 
     -i           -5
                                                                 
      s_v -s_v     6   -6
                                                                 
      s_v'-s_v'    8   -8
                                                                 
     s_v''-s_v'    7   -7
                                                                 

     Band symmetry, D_2h (mmm)  double point group:

     e(  1 -  4) =    -94.14942  eV     4   -->   2 G_5+           
     e(  5 -  8) =    -94.14925  eV     4   -->   2 G_5-           
     e(  9 - 12) =    -59.25157  eV     4   -->   2 G_5+           
     e( 13 - 16) =    -59.25057  eV     4   -->   2 G_5-           
     e( 17 - 20) =    -53.43539  eV     4   -->   2 G_5+           
     e( 21 - 24) =    -53.43315  eV     4   -->   2 G_5-           
     e( 25 - 28) =    -53.42474  eV     4   -->   2 G_5+           
     e( 29 - 32) =    -53.42373  eV     4   -->   2 G_5-           
     e( 33 - 34) =    -43.93687  eV     2   --> G_5+           
     e( 35 - 36) =    -43.93666  eV     2   --> G_5+           
     e( 37 - 38) =    -43.93596  eV     2   --> G_5-           
     e( 39 - 40) =    -43.93576  eV     2   --> G_5-           
     e( 41 - 48) =    -26.89989  eV     8   -->   2 G_5+           
     e( 41 - 48) =    -26.89989  eV     8   -->   2 G_5-           
     e( 49 - 56) =    -26.85783  eV     8   -->   2 G_5+           
     e( 49 - 56) =    -26.85783  eV     8   -->   2 G_5-           
     e( 57 - 64) =    -26.17967  eV     8   -->   2 G_5+           
     e( 57 - 64) =    -26.17967  eV     8   -->   2 G_5-           
     e( 65 - 72) =    -26.14743  eV     8   -->   2 G_5+           
     e( 65 - 72) =    -26.14743  eV     8   -->   2 G_5-           
     e( 73 - 80) =    -26.12477  eV     8   -->   2 G_5+           
     e( 73 - 80) =    -26.12477  eV     8   -->   2 G_5-           
     e( 81 - 82) =    -15.99178  eV     2   --> G_5+           
     e( 83 - 84) =    -15.98983  eV     2   --> G_5+           
     e( 85 - 86) =    -15.98543  eV     2   --> G_5-           
     e( 87 - 88) =    -15.98274  eV     2   --> G_5-           
     e( 89 - 90) =    -15.81887  eV     2   --> G_5+           
     e( 91 - 92) =    -15.81807  eV     2   --> G_5+           
     e( 93 - 94) =    -15.81130  eV     2   --> G_5-           
     e( 95 - 96) =    -15.80764  eV     2   --> G_5-           
     e( 97 - 98) =    -15.80649  eV     2   --> G_5+           
     e( 99 -100) =    -15.80244  eV     2   --> G_5+           
     e(101 -102) =    -15.80179  eV     2   --> G_5-           
     e(103 -104) =    -15.79998  eV     2   --> G_5-           
     e(105 -106) =     -2.50170  eV     2   --> G_5+           
     e(107 -108) =     -2.13664  eV     2   --> G_5-           
     e(109 -110) =     -2.06064  eV     2   --> G_5+           
     e(111 -112) =     -2.03340  eV     2   --> G_5-           
     e(113 -114) =     -0.61712  eV     2   --> G_5-           
     e(115 -116) =     -0.60735  eV     2   --> G_5+           
     e(117 -118) =     -0.55545  eV     2   --> G_5-           
     e(119 -120) =     -0.53139  eV     2   --> G_5+           
     e(121 -122) =     -0.50589  eV     2   --> G_5+           
     e(123 -124) =     -0.42902  eV     2   --> G_5+           
     e(125 -126) =     -0.42405  eV     2   --> G_5-           
     e(127 -128) =     -0.17808  eV     2   --> G_5-           
     e(129 -130) =     -0.00269  eV     2   --> G_5-           
     e(131 -132) =      0.02795  eV     2   --> G_5+           
     e(133 -134) =      0.10499  eV     2   --> G_5+           
     e(135 -136) =      0.11844  eV     2   --> G_5+           
     e(137 -138) =      0.16900  eV     2   --> G_5-           
     e(139 -140) =      0.17285  eV     2   --> G_5+           
     e(141 -142) =      0.18352  eV     2   --> G_5-           
     e(143 -144) =      0.22065  eV     2   --> G_5+           
     e(145 -146) =      0.26777  eV     2   --> G_5-           
     e(147 -148) =      0.43368  eV     2   --> G_5+           
     e(149 -150) =      0.47341  eV     2   --> G_5-           
     e(151 -152) =      0.53631  eV     2   --> G_5-           
     e(153 -154) =      3.49857  eV     2   --> G_5+           
     e(155 -156) =      4.06360  eV     2   --> G_5-           
     e(157 -158) =      5.12925  eV     2   --> G_5+           
     e(159 -160) =      5.60189  eV     2   --> G_5+           
     e(161 -162) =      6.02703  eV     2   --> G_5-           
     e(163 -164) =      6.55020  eV     2   --> G_5+           
     e(165 -166) =      7.52023  eV     2   --> G_5+           
     e(167 -168) =      7.62541  eV     2   --> G_5-           
     e(169 -170) =      7.72646  eV     2   --> G_5+           
     e(171 -172) =      7.92210  eV     2   --> G_5+           
     e(173 -174) =      8.16992  eV     2   --> G_5-           
     e(175 -176) =      8.42369  eV     2   --> G_5-           
     e(177 -178) =      8.49775  eV     2   --> G_5-           
     e(179 -180) =      8.77709  eV     2   --> G_5-           
     e(181 -182) =      9.69895  eV     2   --> G_5-           
     e(183 -184) =     10.53269  eV     2   --> G_5+           
     e(185 -186) =     11.47629  eV     2   --> G_5-           
     e(187 -188) =     12.29195  eV     2   --> G_5+           
     e(189 -190) =     12.50312  eV     2   --> G_5+           
     e(191 -192) =     12.53132  eV     2   --> G_5-           
     e(193 -194) =     12.69383  eV     2   --> G_5-           
     e(195 -196) =     12.91562  eV     2   --> G_5+           
     e(197 -198) =     13.01755  eV     2   --> G_5-           
     e(199 -200) =     13.47580  eV     2   --> G_5+           
     e(201 -202) =     13.58142  eV     2   --> G_5+           
     e(203 -204) =     13.97125  eV     2   --> G_5+           
     e(205 -206) =     14.19048  eV     2   --> G_5+           
     e(207 -208) =     14.47050  eV     2   --> G_5+           
     e(209 -210) =     14.55887  eV     2   --> G_5+           
     e(211 -212) =     14.81360  eV     2   --> G_5-           

 **************************************************************************

 **************************************************************************

                    xk=(   0.00833,   0.00000,   0.00000  )

     double point group C_2v (mm2) 
     there are  5 classes and  1 irreducible representations
     the character table:

       E     -E     C2    s_v   s_v'
                   -C2   -s_v  -s_v'
G_5    2.00 -2.00  0.00  0.00  0.00

     the symmetry operations in each class and the name of the first element:

     E             1
                                                                 
     -E           -1
                                                                 
      C2  -C2      2   -2
                                                                 
      s_v -s_v     4   -4
                                                                 
      s_v'-s_v'    3   -3
                                                                 

     Band symmetry, C_2v (mm2)  double point group:

     e(  1 -  4) =    -94.14942  eV     4   -->   2 G_5  D_5       
     e(  5 -  8) =    -94.14925  eV     4   -->   2 G_5  D_5       
     e(  9 - 12) =    -59.25157  eV     4   -->   2 G_5  D_5       
     e( 13 - 16) =    -59.25057  eV     4   -->   2 G_5  D_5       
     e( 17 - 20) =    -53.43539  eV     4   -->   2 G_5  D_5       
     e( 21 - 24) =    -53.43315  eV     4   -->   2 G_5  D_5       
     e( 25 - 28) =    -53.42474  eV     4   -->   2 G_5  D_5       
     e( 29 - 32) =    -53.42373  eV     4   -->   2 G_5  D_5       
     e( 33 - 34) =    -43.93687  eV     2   --> G_5  D_5       
     e( 35 - 36) =    -43.93666  eV     2   --> G_5  D_5       
     e( 37 - 38) =    -43.93596  eV     2   --> G_5  D_5       
     e( 39 - 40) =    -43.93576  eV     2   --> G_5  D_5       
     e( 41 - 48) =    -26.89989  eV     8   -->   4 G_5  D_5       
     e( 49 - 56) =    -26.85783  eV     8   -->   4 G_5  D_5       
     e( 57 - 64) =    -26.17967  eV     8   -->   4 G_5  D_5       
     e( 65 - 72) =    -26.14743  eV     8   -->   4 G_5  D_5       
     e( 73 - 80) =    -26.12477  eV     8   -->   4 G_5  D_5       
     e( 81 - 82) =    -15.99178  eV     2   --> G_5  D_5       
     e( 83 - 84) =    -15.98983  eV     2   --> G_5  D_5       
     e( 85 - 86) =    -15.98543  eV     2   --> G_5  D_5       
     e( 87 - 88) =    -15.98274  eV     2   --> G_5  D_5       
     e( 89 - 90) =    -15.81887  eV     2   --> G_5  D_5       
     e( 91 - 92) =    -15.81807  eV     2   --> G_5  D_5       
     e( 93 - 94) =    -15.81130  eV     2   --> G_5  D_5       
     e( 95 - 96) =    -15.80764  eV     2   --> G_5  D_5       
     e( 97 - 98) =    -15.80649  eV     2   --> G_5  D_5       
     e( 99 -100) =    -15.80244  eV     2   --> G_5  D_5       
     e(101 -102) =    -15.80179  eV     2   --> G_5  D_5       
     e(103 -104) =    -15.79998  eV     2   --> G_5  D_5       
     e(105 -106) =     -2.50164  eV     2   --> G_5  D_5       
     e(107 -108) =     -2.13671  eV     2   --> G_5  D_5       
     e(109 -110) =     -2.06062  eV     2   --> G_5  D_5       
     e(111 -112) =     -2.03340  eV     2   --> G_5  D_5       
     e(113 -114) =     -0.61711  eV     2   --> G_5  D_5       
     e(115 -116) =     -0.60735  eV     2   --> G_5  D_5       
     e(117 -118) =     -0.55544  eV     2   --> G_5  D_5       
     e(119 -120) =     -0.53138  eV     2   --> G_5  D_5       
     e(121 -122) =     -0.50589  eV     2   --> G_5  D_5       
     e(123 -124) =     -0.42920  eV     2   --> G_5  D_5       
     e(125 -126) =     -0.42388  eV     2   --> G_5  D_5       
     e(127 -128) =     -0.17814  eV     2   --> G_5  D_5       
     e(129 -130) =     -0.00273  eV     2   --> G_5  D_5       
     e(131 -132) =      0.02799  eV     2   --> G_5  D_5       
     e(133 -134) =      0.10500  eV     2   --> G_5  D_5       
     e(135 -136) =      0.11845  eV     2   --> G_5  D_5       
     e(137 -138) =      0.16900  eV     2   --> G_5  D_5       
     e(139 -140) =      0.17285  eV     2   --> G_5  D_5       
     e(141 -142) =      0.18350  eV     2   --> G_5  D_5       
     e(143 -144) =      0.22067  eV     2   --> G_5  D_5       
     e(145 -146) =      0.26777  eV     2   --> G_5  D_5       
     e(147 -148) =      0.43339  eV     2   --> G_5  D_5       
     e(149 -150) =      0.47356  eV     2   --> G_5  D_5       
     e(151 -152) =      0.53641  eV     2   --> G_5  D_5       
     e(153 -154) =      3.49868  eV     2   --> G_5  D_5       
     e(155 -156) =      4.06326  eV     2   --> G_5  D_5       
     e(157 -158) =      5.12908  eV     2   --> G_5  D_5       
     e(159 -160) =      5.60242  eV     2   --> G_5  D_5       
     e(161 -162) =      6.02782  eV     2   --> G_5  D_5       
     e(163 -164) =      6.55031  eV     2   --> G_5  D_5       
     e(165 -166) =      7.52002  eV     2   --> G_5  D_5       
     e(167 -168) =      7.62466  eV     2   --> G_5  D_5       
     e(169 -170) =      7.72738  eV     2   --> G_5  D_5       
     e(171 -172) =      7.91968  eV     2   --> G_5  D_5       
     e(173 -174) =      8.17063  eV     2   --> G_5  D_5       
     e(175 -176) =      8.42417  eV     2   --> G_5  D_5       
     e(177 -178) =      8.49875  eV     2   --> G_5  D_5       
     e(179 -180) =      8.77719  eV     2   --> G_5  D_5       
     e(181 -182) =      9.69906  eV     2   --> G_5  D_5       
     e(183 -184) =     10.53175  eV     2   --> G_5  D_5       
     e(185 -186) =     11.47705  eV     2   --> G_5  D_5       
     e(187 -188) =     12.29188  eV     2   --> G_5  D_5       
     e(189 -190) =     12.50038  eV     2   --> G_5  D_5       
     e(191 -192) =     12.52988  eV     2   --> G_5  D_5       
     e(193 -194) =     12.68343  eV     2   --> G_5  D_5       
     e(195 -196) =     12.92948  eV     2   --> G_5  D_5       
     e(197 -198) =     13.01541  eV     2   --> G_5  D_5       
     e(199 -200) =     13.47545  eV     2   --> G_5  D_5       
     e(201 -202) =     13.58141  eV     2   --> G_5  D_5       
     e(203 -204) =     13.97204  eV     2   --> G_5  D_5       
     e(205 -206) =     14.19024  eV     2   --> G_5  D_5       
     e(207 -208) =     14.46702  eV     2   --> G_5  D_5       
     e(209 -210) =     14.55838  eV     2   --> G_5  D_5       
     e(211 -212) =     14.81885  eV     2   --> G_5  D_5       

 **************************************************************************

 **************************************************************************

                    xk=(   0.01667,   0.00000,   0.00000  )

     Band symmetry, C_2v (mm2)  double point group:

     e(  1 -  4) =    -94.14942  eV     4   -->   2 G_5  D_5       
     e(  5 -  8) =    -94.14925  eV     4   -->   2 G_5  D_5       
     e(  9 - 12) =    -59.25157  eV     4   -->   2 G_5  D_5       
     e( 13 - 16) =    -59.25057  eV     4   -->   2 G_5  D_5       
     e( 17 - 20) =    -53.43539  eV     4   -->   2 G_5  D_5       
     e( 21 - 24) =    -53.43315  eV     4   -->   2 G_5  D_5       
     e( 25 - 28) =    -53.42474  eV     4   -->   2 G_5  D_5       
     e( 29 - 32) =    -53.42373  eV     4   -->   2 G_5  D_5       
     e( 33 - 34) =    -43.93687  eV     2   --> G_5  D_5       
     e( 35 - 36) =    -43.93666  eV     2   --> G_5  D_5       
     e( 37 - 38) =    -43.93596  eV     2   --> G_5  D_5       
     e( 39 - 40) =    -43.93576  eV     2   --> G_5  D_5       
     e( 41 - 48) =    -26.89989  eV     8   -->   4 G_5  D_5       
     e( 49 - 56) =    -26.85783  eV     8   -->   4 G_5  D_5       
     e( 57 - 64) =    -26.17967  eV     8   -->   4 G_5  D_5       
     e( 65 - 72) =    -26.14743  eV     8   -->   4 G_5  D_5       
     e( 73 - 80) =    -26.12477  eV     8   -->   4 G_5  D_5       
     e( 81 - 82) =    -15.99178  eV     2   --> G_5  D_5       
     e( 83 - 84) =    -15.98983  eV     2   --> G_5  D_5       
     e( 85 - 86) =    -15.98543  eV     2   --> G_5  D_5       
     e( 87 - 88) =    -15.98274  eV     2   --> G_5  D_5       
     e( 89 - 90) =    -15.81887  eV     2   --> G_5  D_5       
     e( 91 - 92) =    -15.81807  eV     2   --> G_5  D_5       
     e( 93 - 94) =    -15.81129  eV     2   --> G_5  D_5       
     e( 95 - 96) =    -15.80765  eV     2   --> G_5  D_5       
     e( 97 - 98) =    -15.80649  eV     2   --> G_5  D_5       
     e( 99 -100) =    -15.80244  eV     2   --> G_5  D_5       
     e(101 -102) =    -15.80179  eV     2   --> G_5  D_5       
     e(103 -104) =    -15.79998  eV     2   --> G_5  D_5       
     e(105 -106) =     -2.50144  eV     2   --> G_5  D_5       
     e(107 -108) =     -2.13692  eV     2   --> G_5  D_5       
     e(109 -110) =     -2.06054  eV     2   --> G_5  D_5       
     e(111 -112) =     -2.03338  eV     2   --> G_5  D_5       
     e(113 -114) =     -0.61711  eV     2   --> G_5  D_5       
     e(115 -116) =     -0.60736  eV     2   --> G_5  D_5       
     e(117 -118) =     -0.55540  eV     2   --> G_5  D_5       
     e(119 -120) =     -0.53137  eV     2   --> G_5  D_5       
     e(121 -122) =     -0.50589  eV     2   --> G_5  D_5       
     e(123 -124) =     -0.42967  eV     2   --> G_5  D_5       
     e(125 -126) =     -0.42341  eV     2   --> G_5  D_5       
     e(127 -128) =     -0.17833  eV     2   --> G_5  D_5       
     e(129 -130) =     -0.00286  eV     2   --> G_5  D_5       
     e(131 -132) =      0.02811  eV     2   --> G_5  D_5       
     e(133 -134) =      0.10502  eV     2   --> G_5  D_5       
     e(135 -136) =      0.11846  eV     2   --> G_5  D_5       
     e(137 -138) =      0.16901  eV     2   --> G_5  D_5       
     e(139 -140) =      0.17284  eV     2   --> G_5  D_5       
     e(141 -142) =      0.18342  eV     2   --> G_5  D_5       
     e(143 -144) =      0.22074  eV     2   --> G_5  D_5       
     e(145 -146) =      0.26777  eV     2   --> G_5  D_5       
     e(147 -148) =      0.43251  eV     2   --> G_5  D_5       
     e(149 -150) =      0.47400  eV     2   --> G_5  D_5       
     e(151 -152) =      0.53668  eV     2   --> G_5  D_5       
     e(153 -154) =      3.49900  eV     2   --> G_5  D_5       
     e(155 -156) =      4.06226  eV     2   --> G_5  D_5       
     e(157 -158) =      5.12857  eV     2   --> G_5  D_5       
     e(159 -160) =      5.60400  eV     2   --> G_5  D_5       
     e(161 -162) =      6.03018  eV     2   --> G_5  D_5       
     e(163 -164) =      6.55066  eV     2   --> G_5  D_5       
     e(165 -166) =      7.51937  eV     2   --> G_5  D_5       
     e(167 -168) =      7.62250  eV     2   --> G_5  D_5       
     e(169 -170) =      7.73004  eV     2   --> G_5  D_5       
     e(171 -172) =      7.91262  eV     2   --> G_5  D_5       
     e(173 -174) =      8.17262  eV     2   --> G_5  D_5       
     e(175 -176) =      8.42551  eV     2   --> G_5  D_5       
     e(177 -178) =      8.50182  eV     2   --> G_5  D_5       
     e(179 -180) =      8.77748  eV     2   --> G_5  D_5       
     e(181 -182) =      9.69941  eV     2   --> G_5  D_5       
     e(183 -184) =     10.52895  eV     2   --> G_5  D_5       
     e(185 -186) =     11.47931  eV     2   --> G_5  D_5       
     e(187 -188) =     12.29165  eV     2   --> G_5  D_5       
     e(189 -190) =     12.49079  eV     2   --> G_5  D_5       
     e(191 -192) =     12.52602  eV     2   --> G_5  D_5       
     e(193 -194) =     12.65967  eV     2   --> G_5  D_5       
     e(195 -196) =     12.96448  eV     2   --> G_5  D_5       
     e(197 -198) =     13.00903  eV     2   --> G_5  D_5       
     e(199 -200) =     13.47440  eV     2   --> G_5  D_5       
     e(201 -202) =     13.58141  eV     2   --> G_5  D_5       
     e(203 -204) =     13.97439  eV     2   --> G_5  D_5       
     e(205 -206) =     14.18950  eV     2   --> G_5  D_5       
     e(207 -208) =     14.45702  eV     2   --> G_5  D_5       
     e(209 -210) =     14.55708  eV     2   --> G_5  D_5       
     e(211 -212) =     14.83392  eV     2   --> G_5  D_5       

 **************************************************************************

 **************************************************************************

                    xk=(   0.02500,   0.00000,   0.00000  )

     Band symmetry, C_2v (mm2)  double point group:

     e(  1 -  4) =    -94.14942  eV     4   -->   2 G_5  D_5       
     e(  5 -  8) =    -94.14925  eV     4   -->   2 G_5  D_5       
     e(  9 - 12) =    -59.25157  eV     4   -->   2 G_5  D_5       
     e( 13 - 16) =    -59.25057  eV     4   -->   2 G_5  D_5       
     e( 17 - 20) =    -53.43539  eV     4   -->   2 G_5  D_5       
     e( 21 - 24) =    -53.43315  eV     4   -->   2 G_5  D_5       
     e( 25 - 28) =    -53.42474  eV     4   -->   2 G_5  D_5       
     e( 29 - 32) =    -53.42373  eV     4   -->   2 G_5  D_5       
     e( 33 - 34) =    -43.93687  eV     2   --> G_5  D_5       
     e( 35 - 36) =    -43.93666  eV     2   --> G_5  D_5       
     e( 37 - 38) =    -43.93596  eV     2   --> G_5  D_5       
     e( 39 - 40) =    -43.93576  eV     2   --> G_5  D_5       
     e( 41 - 48) =    -26.89989  eV     8   -->   4 G_5  D_5       
     e( 49 - 56) =    -26.85783  eV     8   -->   4 G_5  D_5       
     e( 57 - 64) =    -26.17967  eV     8   -->   4 G_5  D_5       
     e( 65 - 72) =    -26.14743  eV     8   -->   4 G_5  D_5       
     e( 73 - 80) =    -26.12477  eV     8   -->   4 G_5  D_5       
     e( 81 - 82) =    -15.99178  eV     2   --> G_5  D_5       
     e( 83 - 84) =    -15.98983  eV     2   --> G_5  D_5       
     e( 85 - 86) =    -15.98543  eV     2   --> G_5  D_5       
     e( 87 - 88) =    -15.98275  eV     2   --> G_5  D_5       
     e( 89 - 90) =    -15.81887  eV     2   --> G_5  D_5       
     e( 91 - 92) =    -15.81808  eV     2   --> G_5  D_5       
     e( 93 - 94) =    -15.81129  eV     2   --> G_5  D_5       
     e( 95 - 96) =    -15.80765  eV     2   --> G_5  D_5       
     e( 97 - 98) =    -15.80648  eV     2   --> G_5  D_5       
     e( 99 -100) =    -15.80245  eV     2   --> G_5  D_5       
     e(101 -102) =    -15.80178  eV     2   --> G_5  D_5       
     e(103 -104) =    -15.79999  eV     2   --> G_5  D_5       
     e(105 -106) =     -2.50112  eV     2   --> G_5  D_5       
     e(107 -108) =     -2.13727  eV     2   --> G_5  D_5       
     e(109 -110) =     -2.06041  eV     2   --> G_5  D_5       
     e(111 -112) =     -2.03337  eV     2   --> G_5  D_5       
     e(113 -114) =     -0.61710  eV     2   --> G_5  D_5       
     e(115 -116) =     -0.60737  eV     2   --> G_5  D_5       
     e(117 -118) =     -0.55534  eV     2   --> G_5  D_5       
     e(119 -120) =     -0.53135  eV     2   --> G_5  D_5       
     e(121 -122) =     -0.50590  eV     2   --> G_5  D_5       
     e(123 -124) =     -0.43032  eV     2   --> G_5  D_5       
     e(125 -126) =     -0.42277  eV     2   --> G_5  D_5       
     e(127 -128) =     -0.17865  eV     2   --> G_5  D_5       
     e(129 -130) =     -0.00308  eV     2   --> G_5  D_5       
     e(131 -132) =      0.02831  eV     2   --> G_5  D_5       
     e(133 -134) =      0.10506  eV     2   --> G_5  D_5       
     e(135 -136) =      0.11849  eV     2   --> G_5  D_5       
     e(137 -138) =      0.16903  eV     2   --> G_5  D_5       
     e(139 -140) =      0.17284  eV     2   --> G_5  D_5       
     e(141 -142) =      0.18330  eV     2   --> G_5  D_5       
     e(143 -144) =      0.22086  eV     2   --> G_5  D_5       
     e(145 -146) =      0.26776  eV     2   --> G_5  D_5       
     e(147 -148) =      0.43109  eV     2   --> G_5  D_5       
     e(149 -150) =      0.47469  eV     2   --> G_5  D_5       
     e(151 -152) =      0.53713  eV     2   --> G_5  D_5       
     e(153 -154) =      3.49953  eV     2   --> G_5  D_5       
     e(155 -156) =      4.06059  eV     2   --> G_5  D_5       
     e(157 -158) =      5.12772  eV     2   --> G_5  D_5       
     e(159 -160) =      5.60663  eV     2   --> G_5  D_5       
     e(161 -162) =      6.03410  eV     2   --> G_5  D_5       
     e(163 -164) =      6.55123  eV     2   --> G_5  D_5       
     e(165 -166) =      7.51826  eV     2   --> G_5  D_5       
     e(167 -168) =      7.61919  eV     2   --> G_5  D_5       
     e(169 -170) =      7.73423  eV     2   --> G_5  D_5       
     e(171 -172) =      7.90140  eV     2   --> G_5  D_5       
     e(173 -174) =      8.17550  eV     2   --> G_5  D_5       
     e(175 -176) =      8.42741  eV     2   --> G_5  D_5       
     e(177 -178) =      8.50716  eV     2   --> G_5  D_5       
     e(179 -180) =      8.77798  eV     2   --> G_5  D_5       
     e(181 -182) =      9.69998  eV     2   --> G_5  D_5       
     e(183 -184) =     10.52432  eV     2   --> G_5  D_5       
     e(185 -186) =     11.48304  eV     2   --> G_5  D_5       
     e(187 -188) =     12.29119  eV     2   --> G_5  D_5       
     e(189 -190) =     12.47117  eV     2   --> G_5  D_5       
     e(191 -192) =     12.52098  eV     2   --> G_5  D_5       
     e(193 -194) =     12.63452  eV     2   --> G_5  D_5       
     e(195 -196) =     12.99834  eV     2   --> G_5  D_5       
     e(197 -198) =     13.01091  eV     2   --> G_5  D_5       
     e(199 -200) =     13.47262  eV     2   --> G_5  D_5       
     e(201 -202) =     13.58144  eV     2   --> G_5  D_5       
     e(203 -204) =     13.97828  eV     2   --> G_5  D_5       
     e(205 -206) =     14.18831  eV     2   --> G_5  D_5       
     e(207 -208) =     14.44170  eV     2   --> G_5  D_5       
     e(209 -210) =     14.55534  eV     2   --> G_5  D_5       
     e(211 -212) =     14.85722  eV     2   --> G_5  D_5       

 **************************************************************************

 **************************************************************************

                    xk=(   0.03333,   0.00000,   0.00000  )

     Band symmetry, C_2v (mm2)  double point group:

     e(  1 -  4) =    -94.14942  eV     4   -->   2 G_5  D_5       
     e(  5 -  8) =    -94.14925  eV     4   -->   2 G_5  D_5       
     e(  9 - 12) =    -59.25157  eV     4   -->   2 G_5  D_5       
     e( 13 - 16) =    -59.25057  eV     4   -->   2 G_5  D_5       
     e( 17 - 20) =    -53.43539  eV     4   -->   2 G_5  D_5       
     e( 21 - 24) =    -53.43315  eV     4   -->   2 G_5  D_5       
     e( 25 - 28) =    -53.42474  eV     4   -->   2 G_5  D_5       
     e( 29 - 32) =    -53.42373  eV     4   -->   2 G_5  D_5       
     e( 33 - 34) =    -43.93687  eV     2   --> G_5  D_5       
     e( 35 - 36) =    -43.93666  eV     2   --> G_5  D_5       
     e( 37 - 38) =    -43.93596  eV     2   --> G_5  D_5       
     e( 39 - 40) =    -43.93576  eV     2   --> G_5  D_5       
     e( 41 - 48) =    -26.89989  eV     8   -->   4 G_5  D_5       
     e( 49 - 56) =    -26.85783  eV     8   -->   4 G_5  D_5       
     e( 57 - 64) =    -26.17967  eV     8   -->   4 G_5  D_5       
     e( 65 - 72) =    -26.14743  eV     8   -->   4 G_5  D_5       
     e( 73 - 80) =    -26.12477  eV     8   -->   4 G_5  D_5       
     e( 81 - 82) =    -15.99177  eV     2   --> G_5  D_5       
     e( 83 - 84) =    -15.98984  eV     2   --> G_5  D_5       
     e( 85 - 86) =    -15.98542  eV     2   --> G_5  D_5       
     e( 87 - 88) =    -15.98275  eV     2   --> G_5  D_5       
     e( 89 - 90) =    -15.81887  eV     2   --> G_5  D_5       
     e( 91 - 92) =    -15.81808  eV     2   --> G_5  D_5       
     e( 93 - 94) =    -15.81129  eV     2   --> G_5  D_5       
     e( 95 - 96) =    -15.80766  eV     2   --> G_5  D_5       
     e( 97 - 98) =    -15.80647  eV     2   --> G_5  D_5       
     e( 99 -100) =    -15.80246  eV     2   --> G_5  D_5       
     e(101 -102) =    -15.80178  eV     2   --> G_5  D_5       
     e(103 -104) =    -15.79999  eV     2   --> G_5  D_5       
     e(105 -106) =     -2.50067  eV     2   --> G_5  D_5       
     e(107 -108) =     -2.13776  eV     2   --> G_5  D_5       
     e(109 -110) =     -2.06023  eV     2   --> G_5  D_5       
     e(111 -112) =     -2.03334  eV     2   --> G_5  D_5       
     e(113 -114) =     -0.61709  eV     2   --> G_5  D_5       
     e(115 -116) =     -0.60738  eV     2   --> G_5  D_5       
     e(117 -118) =     -0.55525  eV     2   --> G_5  D_5       
     e(119 -120) =     -0.53132  eV     2   --> G_5  D_5       
     e(121 -122) =     -0.50591  eV     2   --> G_5  D_5       
     e(123 -124) =     -0.43109  eV     2   --> G_5  D_5       
     e(125 -126) =     -0.42202  eV     2   --> G_5  D_5       
     e(127 -128) =     -0.17909  eV     2   --> G_5  D_5       
     e(129 -130) =     -0.00337  eV     2   --> G_5  D_5       
     e(131 -132) =      0.02858  eV     2   --> G_5  D_5       
     e(133 -134) =      0.10511  eV     2   --> G_5  D_5       
     e(135 -136) =      0.11852  eV     2   --> G_5  D_5       
     e(137 -138) =      0.16905  eV     2   --> G_5  D_5       
     e(139 -140) =      0.17283  eV     2   --> G_5  D_5       
     e(141 -142) =      0.18314  eV     2   --> G_5  D_5       
     e(143 -144) =      0.22102  eV     2   --> G_5  D_5       
     e(145 -146) =      0.26775  eV     2   --> G_5  D_5       
     e(147 -148) =      0.42919  eV     2   --> G_5  D_5       
     e(149 -150) =      0.47557  eV     2   --> G_5  D_5       
     e(151 -152) =      0.53775  eV     2   --> G_5  D_5       
     e(153 -154) =      3.50027  eV     2   --> G_5  D_5       
     e(155 -156) =      4.05827  eV     2   --> G_5  D_5       
     e(157 -158) =      5.12658  eV     2   --> G_5  D_5       
     e(159 -160) =      5.61029  eV     2   --> G_5  D_5       
     e(161 -162) =      6.03955  eV     2   --> G_5  D_5       
     e(163 -164) =      6.55204  eV     2   --> G_5  D_5       
     e(165 -166) =      7.51662  eV     2   --> G_5  D_5       
     e(167 -168) =      7.61505  eV     2   --> G_5  D_5       
     e(169 -170) =      7.73963  eV     2   --> G_5  D_5       
     e(171 -172) =      7.88670  eV     2   --> G_5  D_5       
     e(173 -174) =      8.17878  eV     2   --> G_5  D_5       
     e(175 -176) =      8.42950  eV     2   --> G_5  D_5       
     e(177 -178) =      8.51498  eV     2   --> G_5  D_5       
     e(179 -180) =      8.77866  eV     2   --> G_5  D_5       
     e(181 -182) =      9.70079  eV     2   --> G_5  D_5       
     e(183 -184) =     10.51792  eV     2   --> G_5  D_5       
     e(185 -186) =     11.48818  eV     2   --> G_5  D_5       
     e(187 -188) =     12.29030  eV     2   --> G_5  D_5       
     e(189 -190) =     12.43999  eV     2   --> G_5  D_5       
     e(191 -192) =     12.51557  eV     2   --> G_5  D_5       
     e(193 -194) =     12.61460  eV     2   --> G_5  D_5       
     e(195 -196) =     12.98395  eV     2   --> G_5  D_5       
     e(197 -198) =     13.06261  eV     2   --> G_5  D_5       
     e(199 -200) =     13.47008  eV     2   --> G_5  D_5       
     e(201 -202) =     13.58158  eV     2   --> G_5  D_5       
     e(203 -204) =     13.98363  eV     2   --> G_5  D_5       
     e(205 -206) =     14.18667  eV     2   --> G_5  D_5       
     e(207 -208) =     14.42250  eV     2   --> G_5  D_5       
     e(209 -210) =     14.55344  eV     2   --> G_5  D_5       
     e(211 -212) =     14.88693  eV     2   --> G_5  D_5       

 **************************************************************************

 **************************************************************************

                    xk=(   0.04167,   0.00000,   0.00000  )

     Band symmetry, C_2v (mm2)  double point group:

     e(  1 -  4) =    -94.14942  eV     4   -->   2 G_5  D_5       
     e(  5 -  8) =    -94.14925  eV     4   -->   2 G_5  D_5       
     e(  9 - 12) =    -59.25157  eV     4   -->   2 G_5  D_5       
     e( 13 - 16) =    -59.25057  eV     4   -->   2 G_5  D_5       
     e( 17 - 20) =    -53.43539  eV     4   -->   2 G_5  D_5       
     e( 21 - 24) =    -53.43315  eV     4   -->   2 G_5  D_5       
     e( 25 - 28) =    -53.42474  eV     4   -->   2 G_5  D_5       
     e( 29 - 32) =    -53.42373  eV     4   -->   2 G_5  D_5       
     e( 33 - 34) =    -43.93687  eV     2   --> G_5  D_5       
     e( 35 - 36) =    -43.93666  eV     2   --> G_5  D_5       
     e( 37 - 38) =    -43.93596  eV     2   --> G_5  D_5       
     e( 39 - 40) =    -43.93576  eV     2   --> G_5  D_5       
     e( 41 - 48) =    -26.89989  eV     8   -->   4 G_5  D_5       
     e( 49 - 56) =    -26.85783  eV     8   -->   4 G_5  D_5       
     e( 57 - 64) =    -26.17967  eV     8   -->   4 G_5  D_5       
     e( 65 - 72) =    -26.14743  eV     8   -->   4 G_5  D_5       
     e( 73 - 80) =    -26.12477  eV     8   -->   4 G_5  D_5       
     e( 81 - 82) =    -15.99177  eV     2   --> G_5  D_5       
     e( 83 - 84) =    -15.98984  eV     2   --> G_5  D_5       
     e( 85 - 86) =    -15.98542  eV     2   --> G_5  D_5       
     e( 87 - 88) =    -15.98275  eV     2   --> G_5  D_5       
     e( 89 - 90) =    -15.81887  eV     2   --> G_5  D_5       
     e( 91 - 92) =    -15.81808  eV     2   --> G_5  D_5       
     e( 93 - 94) =    -15.81128  eV     2   --> G_5  D_5       
     e( 95 - 96) =    -15.80767  eV     2   --> G_5  D_5       
     e( 97 - 98) =    -15.80647  eV     2   --> G_5  D_5       
     e( 99 -100) =    -15.80247  eV     2   --> G_5  D_5       
     e(101 -102) =    -15.80178  eV     2   --> G_5  D_5       
     e(103 -104) =    -15.79999  eV     2   --> G_5  D_5       
     e(105 -106) =     -2.50009  eV     2   --> G_5  D_5       
     e(107 -108) =     -2.13838  eV     2   --> G_5  D_5       
     e(109 -110) =     -2.06001  eV     2   --> G_5  D_5       
     e(111 -112) =     -2.03331  eV     2   --> G_5  D_5       
     e(113 -114) =     -0.61708  eV     2   --> G_5  D_5       
     e(115 -116) =     -0.60740  eV     2   --> G_5  D_5       
     e(117 -118) =     -0.55514  eV     2   --> G_5  D_5       
     e(119 -120) =     -0.53129  eV     2   --> G_5  D_5       
     e(121 -122) =     -0.50593  eV     2   --> G_5  D_5       
     e(123 -124) =     -0.43192  eV     2   --> G_5  D_5       
     e(125 -126) =     -0.42120  eV     2   --> G_5  D_5       
     e(127 -128) =     -0.17966  eV     2   --> G_5  D_5       
     e(129 -130) =     -0.00374  eV     2   --> G_5  D_5       
     e(131 -132) =      0.02891  eV     2   --> G_5  D_5       
     e(133 -134) =      0.10517  eV     2   --> G_5  D_5       
     e(135 -136) =      0.11857  eV     2   --> G_5  D_5       
     e(137 -138) =      0.16908  eV     2   --> G_5  D_5       
     e(139 -140) =      0.17282  eV     2   --> G_5  D_5       
     e(141 -142) =      0.18293  eV     2   --> G_5  D_5       
     e(143 -144) =      0.22122  eV     2   --> G_5  D_5       
     e(145 -146) =      0.26774  eV     2   --> G_5  D_5       
     e(147 -148) =      0.42688  eV     2   --> G_5  D_5       
     e(149 -150) =      0.47660  eV     2   --> G_5  D_5       
     e(151 -152) =      0.53853  eV     2   --> G_5  D_5       
     e(153 -154) =      3.50122  eV     2   --> G_5  D_5       
     e(155 -156) =      4.05531  eV     2   --> G_5  D_5       
     e(157 -158) =      5.12515  eV     2   --> G_5  D_5       
     e(159 -160) =      5.61496  eV     2   --> G_5  D_5       
     e(161 -162) =      6.04651  eV     2   --> G_5  D_5       
     e(163 -164) =      6.55308  eV     2   --> G_5  D_5       
     e(165 -166) =      7.51438  eV     2   --> G_5  D_5       
     e(167 -168) =      7.61040  eV     2   --> G_5  D_5       
     e(169 -170) =      7.74598  eV     2   --> G_5  D_5       
     e(171 -172) =      7.86921  eV     2   --> G_5  D_5       
     e(173 -174) =      8.18203  eV     2   --> G_5  D_5       
     e(175 -176) =      8.43141  eV     2   --> G_5  D_5       
     e(177 -178) =      8.52541  eV     2   --> G_5  D_5       
     e(179 -180) =      8.77955  eV     2   --> G_5  D_5       
     e(181 -182) =      9.70182  eV     2   --> G_5  D_5       
     e(183 -184) =     10.50981  eV     2   --> G_5  D_5       
     e(185 -186) =     11.49466  eV     2   --> G_5  D_5       
     e(187 -188) =     12.28844  eV     2   --> G_5  D_5       
     e(189 -190) =     12.39972  eV     2   --> G_5  D_5       
     e(191 -192) =     12.50980  eV     2   --> G_5  D_5       
     e(193 -194) =     12.60070  eV     2   --> G_5  D_5       
     e(195 -196) =     12.96574  eV     2   --> G_5  D_5       
     e(197 -198) =     13.11716  eV     2   --> G_5  D_5       
     e(199 -200) =     13.46675  eV     2   --> G_5  D_5       
     e(201 -202) =     13.58189  eV     2   --> G_5  D_5       
     e(203 -204) =     13.99038  eV     2   --> G_5  D_5       
     e(205 -206) =     14.18464  eV     2   --> G_5  D_5       
     e(207 -208) =     14.40070  eV     2   --> G_5  D_5       
     e(209 -210) =     14.55150  eV     2   --> G_5  D_5       
     e(211 -212) =     14.92137  eV     2   --> G_5  D_5       

 **************************************************************************

 **************************************************************************

                    xk=(   0.05000,   0.00000,   0.00000  )

     Band symmetry, C_2v (mm2)  double point group:

     e(  1 -  4) =    -94.14942  eV     4   -->   2 G_5  D_5       
     e(  5 -  8) =    -94.14925  eV     4   -->   2 G_5  D_5       
     e(  9 - 12) =    -59.25157  eV     4   -->   2 G_5  D_5       
     e( 13 - 16) =    -59.25057  eV     4   -->   2 G_5  D_5       
     e( 17 - 20) =    -53.43539  eV     4   -->   2 G_5  D_5       
     e( 21 - 24) =    -53.43315  eV     4   -->   2 G_5  D_5       
     e( 25 - 28) =    -53.42474  eV     4   -->   2 G_5  D_5       
     e( 29 - 32) =    -53.42373  eV     4   -->   2 G_5  D_5       
     e( 33 - 34) =    -43.93687  eV     2   --> G_5  D_5       
     e( 35 - 36) =    -43.93666  eV     2   --> G_5  D_5       
     e( 37 - 38) =    -43.93596  eV     2   --> G_5  D_5       
     e( 39 - 40) =    -43.93576  eV     2   --> G_5  D_5       
     e( 41 - 48) =    -26.89989  eV     8   -->   4 G_5  D_5       
     e( 49 - 56) =    -26.85783  eV     8   -->   4 G_5  D_5       
     e( 57 - 64) =    -26.17967  eV     8   -->   4 G_5  D_5       
     e( 65 - 72) =    -26.14743  eV     8   -->   4 G_5  D_5       
     e( 73 - 80) =    -26.12477  eV     8   -->   4 G_5  D_5       
     e( 81 - 82) =    -15.99177  eV     2   --> G_5  D_5       
     e( 83 - 84) =    -15.98984  eV     2   --> G_5  D_5       
     e( 85 - 86) =    -15.98541  eV     2   --> G_5  D_5       
     e( 87 - 88) =    -15.98276  eV     2   --> G_5  D_5       
     e( 89 - 90) =    -15.81886  eV     2   --> G_5  D_5       
     e( 91 - 92) =    -15.81808  eV     2   --> G_5  D_5       
     e( 93 - 94) =    -15.81127  eV     2   --> G_5  D_5       
     e( 95 - 96) =    -15.80767  eV     2   --> G_5  D_5       
     e( 97 - 98) =    -15.80645  eV     2   --> G_5  D_5       
     e( 99 -100) =    -15.80248  eV     2   --> G_5  D_5       
     e(101 -102) =    -15.80177  eV     2   --> G_5  D_5       
     e(103 -104) =    -15.80000  eV     2   --> G_5  D_5       
     e(105 -106) =     -2.49939  eV     2   --> G_5  D_5       
     e(107 -108) =     -2.13914  eV     2   --> G_5  D_5       
     e(109 -110) =     -2.05973  eV     2   --> G_5  D_5       
     e(111 -112) =     -2.03326  eV     2   --> G_5  D_5       
     e(113 -114) =     -0.61706  eV     2   --> G_5  D_5       
     e(115 -116) =     -0.60742  eV     2   --> G_5  D_5       
     e(117 -118) =     -0.55500  eV     2   --> G_5  D_5       
     e(119 -120) =     -0.53124  eV     2   --> G_5  D_5       
     e(121 -122) =     -0.50594  eV     2   --> G_5  D_5       
     e(123 -124) =     -0.43279  eV     2   --> G_5  D_5       
     e(125 -126) =     -0.42034  eV     2   --> G_5  D_5       
     e(127 -128) =     -0.18035  eV     2   --> G_5  D_5       
     e(129 -130) =     -0.00416  eV     2   --> G_5  D_5       
     e(131 -132) =      0.02930  eV     2   --> G_5  D_5       
     e(133 -134) =      0.10525  eV     2   --> G_5  D_5       
     e(135 -136) =      0.11863  eV     2   --> G_5  D_5       
     e(137 -138) =      0.16910  eV     2   --> G_5  D_5       
     e(139 -140) =      0.17280  eV     2   --> G_5  D_5       
     e(141 -142) =      0.18269  eV     2   --> G_5  D_5       
     e(143 -144) =      0.22146  eV     2   --> G_5  D_5       
     e(145 -146) =      0.26772  eV     2   --> G_5  D_5       
     e(147 -148) =      0.42421  eV     2   --> G_5  D_5       
     e(149 -150) =      0.47774  eV     2   --> G_5  D_5       
     e(151 -152) =      0.53946  eV     2   --> G_5  D_5       
     e(153 -154) =      3.50237  eV     2   --> G_5  D_5       
     e(155 -156) =      4.05174  eV     2   --> G_5  D_5       
     e(157 -158) =      5.12350  eV     2   --> G_5  D_5       
     e(159 -160) =      5.62061  eV     2   --> G_5  D_5       
     e(161 -162) =      6.05494  eV     2   --> G_5  D_5       
     e(163 -164) =      6.55434  eV     2   --> G_5  D_5       
     e(165 -166) =      7.51148  eV     2   --> G_5  D_5       
     e(167 -168) =      7.60551  eV     2   --> G_5  D_5       
     e(169 -170) =      7.75302  eV     2   --> G_5  D_5       
     e(171 -172) =      7.84960  eV     2   --> G_5  D_5       
     e(173 -174) =      8.18490  eV     2   --> G_5  D_5       
     e(175 -176) =      8.43290  eV     2   --> G_5  D_5       
     e(177 -178) =      8.53845  eV     2   --> G_5  D_5       
     e(179 -180) =      8.78063  eV     2   --> G_5  D_5       
     e(181 -182) =      9.70308  eV     2   --> G_5  D_5       
     e(183 -184) =     10.50007  eV     2   --> G_5  D_5       
     e(185 -186) =     11.50237  eV     2   --> G_5  D_5       
     e(187 -188) =     12.28361  eV     2   --> G_5  D_5       
     e(189 -190) =     12.35577  eV     2   --> G_5  D_5       
     e(191 -192) =     12.50349  eV     2   --> G_5  D_5       
     e(193 -194) =     12.59099  eV     2   --> G_5  D_5       
     e(195 -196) =     12.94407  eV     2   --> G_5  D_5       
     e(197 -198) =     13.17307  eV     2   --> G_5  D_5       
     e(199 -200) =     13.46262  eV     2   --> G_5  D_5       
     e(201 -202) =     13.58247  eV     2   --> G_5  D_5       
     e(203 -204) =     13.99842  eV     2   --> G_5  D_5       
     e(205 -206) =     14.18227  eV     2   --> G_5  D_5       
     e(207 -208) =     14.37728  eV     2   --> G_5  D_5       
     e(209 -210) =     14.54958  eV     2   --> G_5  D_5       
     e(211 -212) =     14.93011  eV     2   --> G_5  D_5       

 **************************************************************************

 **************************************************************************

                    xk=(   0.05833,   0.00000,   0.00000  )

     Band symmetry, C_2v (mm2)  double point group:

     e(  1 -  4) =    -94.14942  eV     4   -->   2 G_5  D_5       
     e(  5 -  8) =    -94.14925  eV     4   -->   2 G_5  D_5       
     e(  9 - 12) =    -59.25157  eV     4   -->   2 G_5  D_5       
     e( 13 - 16) =    -59.25057  eV     4   -->   2 G_5  D_5       
     e( 17 - 20) =    -53.43539  eV     4   -->   2 G_5  D_5       
     e( 21 - 24) =    -53.43315  eV     4   -->   2 G_5  D_5       
     e( 25 - 28) =    -53.42474  eV     4   -->   2 G_5  D_5       
     e( 29 - 32) =    -53.42373  eV     4   -->   2 G_5  D_5       
     e( 33 - 34) =    -43.93687  eV     2   --> G_5  D_5       
     e( 35 - 36) =    -43.93666  eV     2   --> G_5  D_5       
     e( 37 - 38) =    -43.93596  eV     2   --> G_5  D_5       
     e( 39 - 40) =    -43.93576  eV     2   --> G_5  D_5       
     e( 41 - 48) =    -26.89989  eV     8   -->   4 G_5  D_5       
     e( 49 - 56) =    -26.85783  eV     8   -->   4 G_5  D_5       
     e( 57 - 64) =    -26.17967  eV     8   -->   4 G_5  D_5       
     e( 65 - 72) =    -26.14743  eV     8   -->   4 G_5  D_5       
     e( 73 - 80) =    -26.12477  eV     8   -->   4 G_5  D_5       
     e( 81 - 82) =    -15.99176  eV     2   --> G_5  D_5       
     e( 83 - 84) =    -15.98985  eV     2   --> G_5  D_5       
     e( 85 - 86) =    -15.98541  eV     2   --> G_5  D_5       
     e( 87 - 88) =    -15.98276  eV     2   --> G_5  D_5       
     e( 89 - 90) =    -15.81886  eV     2   --> G_5  D_5       
     e( 91 - 92) =    -15.81808  eV     2   --> G_5  D_5       
     e( 93 - 94) =    -15.81126  eV     2   --> G_5  D_5       
     e( 95 - 96) =    -15.80769  eV     2   --> G_5  D_5       
     e( 97 - 98) =    -15.80644  eV     2   --> G_5  D_5       
     e( 99 -100) =    -15.80249  eV     2   --> G_5  D_5       
     e(101 -102) =    -15.80177  eV     2   --> G_5  D_5       
     e(103 -104) =    -15.80000  eV     2   --> G_5  D_5       
     e(105 -106) =     -2.49856  eV     2   --> G_5  D_5       
     e(107 -108) =     -2.14003  eV     2   --> G_5  D_5       
     e(109 -110) =     -2.05942  eV     2   --> G_5  D_5       
     e(111 -112) =     -2.03322  eV     2   --> G_5  D_5       
     e(113 -114) =     -0.61704  eV     2   --> G_5  D_5       
     e(115 -116) =     -0.60745  eV     2   --> G_5  D_5       
     e(117 -118) =     -0.55484  eV     2   --> G_5  D_5       
     e(119 -120) =     -0.53119  eV     2   --> G_5  D_5       
     e(121 -122) =     -0.50597  eV     2   --> G_5  D_5       
     e(123 -124) =     -0.43370  eV     2   --> G_5  D_5       
     e(125 -126) =     -0.41946  eV     2   --> G_5  D_5       
     e(127 -128) =     -0.18117  eV     2   --> G_5  D_5       
     e(129 -130) =     -0.00463  eV     2   --> G_5  D_5       
     e(131 -132) =      0.02973  eV     2   --> G_5  D_5       
     e(133 -134) =      0.10533  eV     2   --> G_5  D_5       
     e(135 -136) =      0.11870  eV     2   --> G_5  D_5       
     e(137 -138) =      0.16913  eV     2   --> G_5  D_5       
     e(139 -140) =      0.17279  eV     2   --> G_5  D_5       
     e(141 -142) =      0.18242  eV     2   --> G_5  D_5       
     e(143 -144) =      0.22174  eV     2   --> G_5  D_5       
     e(145 -146) =      0.26770  eV     2   --> G_5  D_5       
     e(147 -148) =      0.42124  eV     2   --> G_5  D_5       
     e(149 -150) =      0.47894  eV     2   --> G_5  D_5       
     e(151 -152) =      0.54051  eV     2   --> G_5  D_5       
     e(153 -154) =      3.50371  eV     2   --> G_5  D_5       
     e(155 -156) =      4.04756  eV     2   --> G_5  D_5       
     e(157 -158) =      5.12165  eV     2   --> G_5  D_5       
     e(159 -160) =      5.62722  eV     2   --> G_5  D_5       
     e(161 -162) =      6.06478  eV     2   --> G_5  D_5       
     e(163 -164) =      6.55584  eV     2   --> G_5  D_5       
     e(165 -166) =      7.50782  eV     2   --> G_5  D_5       
     e(167 -168) =      7.60056  eV     2   --> G_5  D_5       
     e(169 -170) =      7.76053  eV     2   --> G_5  D_5       
     e(171 -172) =      7.82847  eV     2   --> G_5  D_5       
     e(173 -174) =      8.18719  eV     2   --> G_5  D_5       
     e(175 -176) =      8.43387  eV     2   --> G_5  D_5       
     e(177 -178) =      8.55389  eV     2   --> G_5  D_5       
     e(179 -180) =      8.78191  eV     2   --> G_5  D_5       
     e(181 -182) =      9.70456  eV     2   --> G_5  D_5       
     e(183 -184) =     10.48881  eV     2   --> G_5  D_5       
     e(185 -186) =     11.51121  eV     2   --> G_5  D_5       
     e(187 -188) =     12.26687  eV     2   --> G_5  D_5       
     e(189 -190) =     12.31978  eV     2   --> G_5  D_5       
     e(191 -192) =     12.49653  eV     2   --> G_5  D_5       
     e(193 -194) =     12.58364  eV     2   --> G_5  D_5       
     e(195 -196) =     12.91926  eV     2   --> G_5  D_5       
     e(197 -198) =     13.22948  eV     2   --> G_5  D_5       
     e(199 -200) =     13.45775  eV     2   --> G_5  D_5       
     e(201 -202) =     13.58338  eV     2   --> G_5  D_5       
     e(203 -204) =     14.00764  eV     2   --> G_5  D_5       
     e(205 -206) =     14.17962  eV     2   --> G_5  D_5       
     e(207 -208) =     14.35294  eV     2   --> G_5  D_5       
     e(209 -210) =     14.54774  eV     2   --> G_5  D_5       
     e(211 -212) =     14.93700  eV     2   --> G_5  D_5       

 **************************************************************************

 **************************************************************************

                    xk=(   0.06667,   0.00000,   0.00000  )

     Band symmetry, C_2v (mm2)  double point group:

     e(  1 -  4) =    -94.14942  eV     4   -->   2 G_5  D_5       
     e(  5 -  8) =    -94.14925  eV     4   -->   2 G_5  D_5       
     e(  9 - 12) =    -59.25157  eV     4   -->   2 G_5  D_5       
     e( 13 - 16) =    -59.25057  eV     4   -->   2 G_5  D_5       
     e( 17 - 20) =    -53.43539  eV     4   -->   2 G_5  D_5       
     e( 21 - 24) =    -53.43315  eV     4   -->   2 G_5  D_5       
     e( 25 - 28) =    -53.42474  eV     4   -->   2 G_5  D_5       
     e( 29 - 32) =    -53.42373  eV     4   -->   2 G_5  D_5       
     e( 33 - 34) =    -43.93687  eV     2   --> G_5  D_5       
     e( 35 - 36) =    -43.93666  eV     2   --> G_5  D_5       
     e( 37 - 38) =    -43.93596  eV     2   --> G_5  D_5       
     e( 39 - 40) =    -43.93576  eV     2   --> G_5  D_5       
     e( 41 - 48) =    -26.89989  eV     8   -->   4 G_5  D_5       
     e( 49 - 56) =    -26.85783  eV     8   -->   4 G_5  D_5       
     e( 57 - 64) =    -26.17967  eV     8   -->   4 G_5  D_5       
     e( 65 - 72) =    -26.14743  eV     8   -->   4 G_5  D_5       
     e( 73 - 80) =    -26.12477  eV     8   -->   4 G_5  D_5       
     e( 81 - 82) =    -15.99176  eV     2   --> G_5  D_5       
     e( 83 - 84) =    -15.98985  eV     2   --> G_5  D_5       
     e( 85 - 86) =    -15.98540  eV     2   --> G_5  D_5       
     e( 87 - 88) =    -15.98277  eV     2   --> G_5  D_5       
     e( 89 - 90) =    -15.81886  eV     2   --> G_5  D_5       
     e( 91 - 92) =    -15.81808  eV     2   --> G_5  D_5       
     e( 93 - 94) =    -15.81125  eV     2   --> G_5  D_5       
     e( 95 - 96) =    -15.80770  eV     2   --> G_5  D_5       
     e( 97 - 98) =    -15.80643  eV     2   --> G_5  D_5       
     e( 99 -100) =    -15.80250  eV     2   --> G_5  D_5       
     e(101 -102) =    -15.80176  eV     2   --> G_5  D_5       
     e(103 -104) =    -15.80001  eV     2   --> G_5  D_5       
     e(105 -106) =     -2.49760  eV     2   --> G_5  D_5       
     e(107 -108) =     -2.14106  eV     2   --> G_5  D_5       
     e(109 -110) =     -2.05906  eV     2   --> G_5  D_5       
     e(111 -112) =     -2.03316  eV     2   --> G_5  D_5       
     e(113 -114) =     -0.61701  eV     2   --> G_5  D_5       
     e(115 -116) =     -0.60748  eV     2   --> G_5  D_5       
     e(117 -118) =     -0.55466  eV     2   --> G_5  D_5       
     e(119 -120) =     -0.53113  eV     2   --> G_5  D_5       
     e(121 -122) =     -0.50599  eV     2   --> G_5  D_5       
     e(123 -124) =     -0.43463  eV     2   --> G_5  D_5       
     e(125 -126) =     -0.41855  eV     2   --> G_5  D_5       
     e(127 -128) =     -0.18211  eV     2   --> G_5  D_5       
     e(129 -130) =     -0.00515  eV     2   --> G_5  D_5       
     e(131 -132) =      0.03020  eV     2   --> G_5  D_5       
     e(133 -134) =      0.10543  eV     2   --> G_5  D_5       
     e(135 -136) =      0.11878  eV     2   --> G_5  D_5       
     e(137 -138) =      0.16916  eV     2   --> G_5  D_5       
     e(139 -140) =      0.17277  eV     2   --> G_5  D_5       
     e(141 -142) =      0.18213  eV     2   --> G_5  D_5       
     e(143 -144) =      0.22206  eV     2   --> G_5  D_5       
     e(145 -146) =      0.26768  eV     2   --> G_5  D_5       
     e(147 -148) =      0.41802  eV     2   --> G_5  D_5       
     e(149 -150) =      0.48019  eV     2   --> G_5  D_5       
     e(151 -152) =      0.54168  eV     2   --> G_5  D_5       
     e(153 -154) =      3.50524  eV     2   --> G_5  D_5       
     e(155 -156) =      4.04281  eV     2   --> G_5  D_5       
     e(157 -158) =      5.11965  eV     2   --> G_5  D_5       
     e(159 -160) =      5.63474  eV     2   --> G_5  D_5       
     e(161 -162) =      6.07599  eV     2   --> G_5  D_5       
     e(163 -164) =      6.55757  eV     2   --> G_5  D_5       
     e(165 -166) =      7.50334  eV     2   --> G_5  D_5       
     e(167 -168) =      7.59566  eV     2   --> G_5  D_5       
     e(169 -170) =      7.76823  eV     2   --> G_5  D_5       
     e(171 -172) =      7.80650  eV     2   --> G_5  D_5       
     e(173 -174) =      8.18877  eV     2   --> G_5  D_5       
     e(175 -176) =      8.43430  eV     2   --> G_5  D_5       
     e(177 -178) =      8.57145  eV     2   --> G_5  D_5       
     e(179 -180) =      8.78339  eV     2   --> G_5  D_5       
     e(181 -182) =      9.70626  eV     2   --> G_5  D_5       
     e(183 -184) =     10.47613  eV     2   --> G_5  D_5       
     e(185 -186) =     11.52106  eV     2   --> G_5  D_5       
     e(187 -188) =     12.22644  eV     2   --> G_5  D_5       
     e(189 -190) =     12.30520  eV     2   --> G_5  D_5       
     e(191 -192) =     12.48888  eV     2   --> G_5  D_5       
     e(193 -194) =     12.57754  eV     2   --> G_5  D_5       
     e(195 -196) =     12.89162  eV     2   --> G_5  D_5       
     e(197 -198) =     13.28570  eV     2   --> G_5  D_5       
     e(199 -200) =     13.45232  eV     2   --> G_5  D_5       
     e(201 -202) =     13.58471  eV     2   --> G_5  D_5       
     e(203 -204) =     14.01789  eV     2   --> G_5  D_5       
     e(205 -206) =     14.17675  eV     2   --> G_5  D_5       
     e(207 -208) =     14.32814  eV     2   --> G_5  D_5       
     e(209 -210) =     14.54602  eV     2   --> G_5  D_5       
     e(211 -212) =     14.94505  eV     2   --> G_5  D_5       

 **************************************************************************

 **************************************************************************

                    xk=(   0.07500,   0.00000,   0.00000  )

     Band symmetry, C_2v (mm2)  double point group:

     e(  1 -  4) =    -94.14942  eV     4   -->   2 G_5  D_5       
     e(  5 -  8) =    -94.14925  eV     4   -->   2 G_5  D_5       
     e(  9 - 12) =    -59.25157  eV     4   -->   2 G_5  D_5       
     e( 13 - 16) =    -59.25057  eV     4   -->   2 G_5  D_5       
     e( 17 - 20) =    -53.43539  eV     4   -->   2 G_5  D_5       
     e( 21 - 24) =    -53.43315  eV     4   -->   2 G_5  D_5       
     e( 25 - 28) =    -53.42474  eV     4   -->   2 G_5  D_5       
     e( 29 - 32) =    -53.42373  eV     4   -->   2 G_5  D_5       
     e( 33 - 34) =    -43.93687  eV     2   --> G_5  D_5       
     e( 35 - 36) =    -43.93666  eV     2   --> G_5  D_5       
     e( 37 - 38) =    -43.93596  eV     2   --> G_5  D_5       
     e( 39 - 40) =    -43.93576  eV     2   --> G_5  D_5       
     e( 41 - 48) =    -26.89989  eV     8   -->   4 G_5  D_5       
     e( 49 - 56) =    -26.85783  eV     8   -->   4 G_5  D_5       
     e( 57 - 64) =    -26.17967  eV     8   -->   4 G_5  D_5       
     e( 65 - 72) =    -26.14743  eV     8   -->   4 G_5  D_5       
     e( 73 - 80) =    -26.12477  eV     8   -->   4 G_5  D_5       
     e( 81 - 82) =    -15.99175  eV     2   --> G_5  D_5       
     e( 83 - 84) =    -15.98986  eV     2   --> G_5  D_5       
     e( 85 - 86) =    -15.98539  eV     2   --> G_5  D_5       
     e( 87 - 88) =    -15.98278  eV     2   --> G_5  D_5       
     e( 89 - 90) =    -15.81885  eV     2   --> G_5  D_5       
     e( 91 - 92) =    -15.81808  eV     2   --> G_5  D_5       
     e( 93 - 94) =    -15.81124  eV     2   --> G_5  D_5       
     e( 95 - 96) =    -15.80771  eV     2   --> G_5  D_5       
     e( 97 - 98) =    -15.80641  eV     2   --> G_5  D_5       
     e( 99 -100) =    -15.80252  eV     2   --> G_5  D_5       
     e(101 -102) =    -15.80176  eV     2   --> G_5  D_5       
     e(103 -104) =    -15.80002  eV     2   --> G_5  D_5       
     e(105 -106) =     -2.49652  eV     2   --> G_5  D_5       
     e(107 -108) =     -2.14220  eV     2   --> G_5  D_5       
     e(109 -110) =     -2.05866  eV     2   --> G_5  D_5       
     e(111 -112) =     -2.03310  eV     2   --> G_5  D_5       
     e(113 -114) =     -0.61699  eV     2   --> G_5  D_5       
     e(115 -116) =     -0.60751  eV     2   --> G_5  D_5       
     e(117 -118) =     -0.55445  eV     2   --> G_5  D_5       
     e(119 -120) =     -0.53106  eV     2   --> G_5  D_5       
     e(121 -122) =     -0.50602  eV     2   --> G_5  D_5       
     e(123 -124) =     -0.43558  eV     2   --> G_5  D_5       
     e(125 -126) =     -0.41763  eV     2   --> G_5  D_5       
     e(127 -128) =     -0.18318  eV     2   --> G_5  D_5       
     e(129 -130) =     -0.00569  eV     2   --> G_5  D_5       
     e(131 -132) =      0.03070  eV     2   --> G_5  D_5       
     e(133 -134) =      0.10553  eV     2   --> G_5  D_5       
     e(135 -136) =      0.11887  eV     2   --> G_5  D_5       
     e(137 -138) =      0.16917  eV     2   --> G_5  D_5       
     e(139 -140) =      0.17275  eV     2   --> G_5  D_5       
     e(141 -142) =      0.18181  eV     2   --> G_5  D_5       
     e(143 -144) =      0.22240  eV     2   --> G_5  D_5       
     e(145 -146) =      0.26766  eV     2   --> G_5  D_5       
     e(147 -148) =      0.41458  eV     2   --> G_5  D_5       
     e(149 -150) =      0.48145  eV     2   --> G_5  D_5       
     e(151 -152) =      0.54294  eV     2   --> G_5  D_5       
     e(153 -154) =      3.50694  eV     2   --> G_5  D_5       
     e(155 -156) =      4.03752  eV     2   --> G_5  D_5       
     e(157 -158) =      5.11757  eV     2   --> G_5  D_5       
     e(159 -160) =      5.64314  eV     2   --> G_5  D_5       
     e(161 -162) =      6.08852  eV     2   --> G_5  D_5       
     e(163 -164) =      6.55952  eV     2   --> G_5  D_5       
     e(165 -166) =      7.49801  eV     2   --> G_5  D_5       
     e(167 -168) =      7.59080  eV     2   --> G_5  D_5       
     e(169 -170) =      7.77410  eV     2   --> G_5  D_5       
     e(171 -172) =      7.78608  eV     2   --> G_5  D_5       
     e(173 -174) =      8.18961  eV     2   --> G_5  D_5       
     e(175 -176) =      8.43423  eV     2   --> G_5  D_5       
     e(177 -178) =      8.59078  eV     2   --> G_5  D_5       
     e(179 -180) =      8.78507  eV     2   --> G_5  D_5       
     e(181 -182) =      9.70819  eV     2   --> G_5  D_5       
     e(183 -184) =     10.46213  eV     2   --> G_5  D_5       
     e(185 -186) =     11.53179  eV     2   --> G_5  D_5       
     e(187 -188) =     12.17460  eV     2   --> G_5  D_5       
     e(189 -190) =     12.30073  eV     2   --> G_5  D_5       
     e(191 -192) =     12.48056  eV     2   --> G_5  D_5       
     e(193 -194) =     12.57202  eV     2   --> G_5  D_5       
     e(195 -196) =     12.86149  eV     2   --> G_5  D_5       
     e(197 -198) =     13.34064  eV     2   --> G_5  D_5       
     e(199 -200) =     13.44708  eV     2   --> G_5  D_5       
     e(201 -202) =     13.58651  eV     2   --> G_5  D_5       
     e(203 -204) =     14.02898  eV     2   --> G_5  D_5       
     e(205 -206) =     14.17372  eV     2   --> G_5  D_5       
     e(207 -208) =     14.30326  eV     2   --> G_5  D_5       
     e(209 -210) =     14.54449  eV     2   --> G_5  D_5       
     e(211 -212) =     14.95422  eV     2   --> G_5  D_5       

 **************************************************************************

 **************************************************************************

                    xk=(   0.08333,   0.00000,   0.00000  )

     Band symmetry, C_2v (mm2)  double point group:

     e(  1 -  4) =    -94.14942  eV     4   -->   2 G_5  D_5       
     e(  5 -  8) =    -94.14925  eV     4   -->   2 G_5  D_5       
     e(  9 - 12) =    -59.25157  eV     4   -->   2 G_5  D_5       
     e( 13 - 16) =    -59.25057  eV     4   -->   2 G_5  D_5       
     e( 17 - 20) =    -53.43539  eV     4   -->   2 G_5  D_5       
     e( 21 - 24) =    -53.43315  eV     4   -->   2 G_5  D_5       
     e( 25 - 28) =    -53.42474  eV     4   -->   2 G_5  D_5       
     e( 29 - 32) =    -53.42373  eV     4   -->   2 G_5  D_5       
     e( 33 - 34) =    -43.93687  eV     2   --> G_5  D_5       
     e( 35 - 36) =    -43.93666  eV     2   --> G_5  D_5       
     e( 37 - 38) =    -43.93596  eV     2   --> G_5  D_5       
     e( 39 - 40) =    -43.93576  eV     2   --> G_5  D_5       
     e( 41 - 48) =    -26.89989  eV     8   -->   4 G_5  D_5       
     e( 49 - 56) =    -26.85783  eV     8   -->   4 G_5  D_5       
     e( 57 - 64) =    -26.17967  eV     8   -->   4 G_5  D_5       
     e( 65 - 72) =    -26.14743  eV     8   -->   4 G_5  D_5       
     e( 73 - 80) =    -26.12477  eV     8   -->   4 G_5  D_5       
     e( 81 - 82) =    -15.99175  eV     2   --> G_5  D_5       
     e( 83 - 84) =    -15.98986  eV     2   --> G_5  D_5       
     e( 85 - 86) =    -15.98538  eV     2   --> G_5  D_5       
     e( 87 - 88) =    -15.98279  eV     2   --> G_5  D_5       
     e( 89 - 90) =    -15.81885  eV     2   --> G_5  D_5       
     e( 91 - 92) =    -15.81808  eV     2   --> G_5  D_5       
     e( 93 - 94) =    -15.81122  eV     2   --> G_5  D_5       
     e( 95 - 96) =    -15.80773  eV     2   --> G_5  D_5       
     e( 97 - 98) =    -15.80639  eV     2   --> G_5  D_5       
     e( 99 -100) =    -15.80254  eV     2   --> G_5  D_5       
     e(101 -102) =    -15.80175  eV     2   --> G_5  D_5       
     e(103 -104) =    -15.80003  eV     2   --> G_5  D_5       
     e(105 -106) =     -2.49531  eV     2   --> G_5  D_5       
     e(107 -108) =     -2.14348  eV     2   --> G_5  D_5       
     e(109 -110) =     -2.05823  eV     2   --> G_5  D_5       
     e(111 -112) =     -2.03303  eV     2   --> G_5  D_5       
     e(113 -114) =     -0.61696  eV     2   --> G_5  D_5       
     e(115 -116) =     -0.60755  eV     2   --> G_5  D_5       
     e(117 -118) =     -0.55421  eV     2   --> G_5  D_5       
     e(119 -120) =     -0.53098  eV     2   --> G_5  D_5       
     e(121 -122) =     -0.50605  eV     2   --> G_5  D_5       
     e(123 -124) =     -0.43655  eV     2   --> G_5  D_5       
     e(125 -126) =     -0.41668  eV     2   --> G_5  D_5       
     e(127 -128) =     -0.18437  eV     2   --> G_5  D_5       
     e(129 -130) =     -0.00625  eV     2   --> G_5  D_5       
     e(131 -132) =      0.03121  eV     2   --> G_5  D_5       
     e(133 -134) =      0.10564  eV     2   --> G_5  D_5       
     e(135 -136) =      0.11898  eV     2   --> G_5  D_5       
     e(137 -138) =      0.16918  eV     2   --> G_5  D_5       
     e(139 -140) =      0.17272  eV     2   --> G_5  D_5       
     e(141 -142) =      0.18149  eV     2   --> G_5  D_5       
     e(143 -144) =      0.22277  eV     2   --> G_5  D_5       
     e(145 -146) =      0.26763  eV     2   --> G_5  D_5       
     e(147 -148) =      0.41096  eV     2   --> G_5  D_5       
     e(149 -150) =      0.48273  eV     2   --> G_5  D_5       
     e(151 -152) =      0.54428  eV     2   --> G_5  D_5       
     e(153 -154) =      3.50881  eV     2   --> G_5  D_5       
     e(155 -156) =      4.03170  eV     2   --> G_5  D_5       
     e(157 -158) =      5.11545  eV     2   --> G_5  D_5       
     e(159 -160) =      5.65237  eV     2   --> G_5  D_5       
     e(161 -162) =      6.10230  eV     2   --> G_5  D_5       
     e(163 -164) =      6.56170  eV     2   --> G_5  D_5       
     e(165 -166) =      7.49182  eV     2   --> G_5  D_5       
     e(167 -168) =      7.58584  eV     2   --> G_5  D_5       
     e(169 -170) =      7.75885  eV     2   --> G_5  D_5       
     e(171 -172) =      7.78692  eV     2   --> G_5  D_5       
     e(173 -174) =      8.18972  eV     2   --> G_5  D_5       
     e(175 -176) =      8.43373  eV     2   --> G_5  D_5       
     e(177 -178) =      8.61155  eV     2   --> G_5  D_5       
     e(179 -180) =      8.78694  eV     2   --> G_5  D_5       
     e(181 -182) =      9.71034  eV     2   --> G_5  D_5       
     e(183 -184) =     10.44691  eV     2   --> G_5  D_5       
     e(185 -186) =     11.54324  eV     2   --> G_5  D_5       
     e(187 -188) =     12.11959  eV     2   --> G_5  D_5       
     e(189 -190) =     12.29872  eV     2   --> G_5  D_5       
     e(191 -192) =     12.47162  eV     2   --> G_5  D_5       
     e(193 -194) =     12.56672  eV     2   --> G_5  D_5       
     e(195 -196) =     12.82919  eV     2   --> G_5  D_5       
     e(197 -198) =     13.39006  eV     2   --> G_5  D_5       
     e(199 -200) =     13.44603  eV     2   --> G_5  D_5       
     e(201 -202) =     13.58881  eV     2   --> G_5  D_5       
     e(203 -204) =     14.04063  eV     2   --> G_5  D_5       
     e(205 -206) =     14.17063  eV     2   --> G_5  D_5       
     e(207 -208) =     14.27866  eV     2   --> G_5  D_5       
     e(209 -210) =     14.54319  eV     2   --> G_5  D_5       
     e(211 -212) =     14.96449  eV     2   --> G_5  D_5       

 **************************************************************************

 **************************************************************************

                    xk=(   0.09167,   0.00000,   0.00000  )

     Band symmetry, C_2v (mm2)  double point group:

     e(  1 -  4) =    -94.14942  eV     4   -->   2 G_5  D_5       
     e(  5 -  8) =    -94.14925  eV     4   -->   2 G_5  D_5       
     e(  9 - 12) =    -59.25157  eV     4   -->   2 G_5  D_5       
     e( 13 - 16) =    -59.25057  eV     4   -->   2 G_5  D_5       
     e( 17 - 20) =    -53.43539  eV     4   -->   2 G_5  D_5       
     e( 21 - 24) =    -53.43315  eV     4   -->   2 G_5  D_5       
     e( 25 - 28) =    -53.42474  eV     4   -->   2 G_5  D_5       
     e( 29 - 32) =    -53.42373  eV     4   -->   2 G_5  D_5       
     e( 33 - 34) =    -43.93687  eV     2   --> G_5  D_5       
     e( 35 - 36) =    -43.93666  eV     2   --> G_5  D_5       
     e( 37 - 38) =    -43.93596  eV     2   --> G_5  D_5       
     e( 39 - 40) =    -43.93576  eV     2   --> G_5  D_5       
     e( 41 - 48) =    -26.89989  eV     8   -->   4 G_5  D_5       
     e( 49 - 56) =    -26.85783  eV     8   -->   4 G_5  D_5       
     e( 57 - 64) =    -26.17967  eV     8   -->   4 G_5  D_5       
     e( 65 - 72) =    -26.14743  eV     8   -->   4 G_5  D_5       
     e( 73 - 80) =    -26.12477  eV     8   -->   4 G_5  D_5       
     e( 81 - 82) =    -15.99174  eV     2   --> G_5  D_5       
     e( 83 - 84) =    -15.98987  eV     2   --> G_5  D_5       
     e( 85 - 86) =    -15.98537  eV     2   --> G_5  D_5       
     e( 87 - 88) =    -15.98279  eV     2   --> G_5  D_5       
     e( 89 - 90) =    -15.81885  eV     2   --> G_5  D_5       
     e( 91 - 92) =    -15.81809  eV     2   --> G_5  D_5       
     e( 93 - 94) =    -15.81121  eV     2   --> G_5  D_5       
     e( 95 - 96) =    -15.80774  eV     2   --> G_5  D_5       
     e( 97 - 98) =    -15.80638  eV     2   --> G_5  D_5       
     e( 99 -100) =    -15.80256  eV     2   --> G_5  D_5       
     e(101 -102) =    -15.80174  eV     2   --> G_5  D_5       
     e(103 -104) =    -15.80004  eV     2   --> G_5  D_5       
     e(105 -106) =     -2.49397  eV     2   --> G_5  D_5       
     e(107 -108) =     -2.14487  eV     2   --> G_5  D_5       
     e(109 -110) =     -2.05776  eV     2   --> G_5  D_5       
     e(111 -112) =     -2.03296  eV     2   --> G_5  D_5       
     e(113 -114) =     -0.61692  eV     2   --> G_5  D_5       
     e(115 -116) =     -0.60759  eV     2   --> G_5  D_5       
     e(117 -118) =     -0.55395  eV     2   --> G_5  D_5       
     e(119 -120) =     -0.53090  eV     2   --> G_5  D_5       
     e(121 -122) =     -0.50608  eV     2   --> G_5  D_5       
     e(123 -124) =     -0.43753  eV     2   --> G_5  D_5       
     e(125 -126) =     -0.41573  eV     2   --> G_5  D_5       
     e(127 -128) =     -0.18568  eV     2   --> G_5  D_5       
     e(129 -130) =     -0.00683  eV     2   --> G_5  D_5       
     e(131 -132) =      0.03174  eV     2   --> G_5  D_5       
     e(133 -134) =      0.10575  eV     2   --> G_5  D_5       
     e(135 -136) =      0.11910  eV     2   --> G_5  D_5       
     e(137 -138) =      0.16917  eV     2   --> G_5  D_5       
     e(139 -140) =      0.17269  eV     2   --> G_5  D_5       
     e(141 -142) =      0.18118  eV     2   --> G_5  D_5       
     e(143 -144) =      0.22317  eV     2   --> G_5  D_5       
     e(145 -146) =      0.26760  eV     2   --> G_5  D_5       
     e(147 -148) =      0.40718  eV     2   --> G_5  D_5       
     e(149 -150) =      0.48400  eV     2   --> G_5  D_5       
     e(151 -152) =      0.54569  eV     2   --> G_5  D_5       
     e(153 -154) =      3.51083  eV     2   --> G_5  D_5       
     e(155 -156) =      4.02540  eV     2   --> G_5  D_5       
     e(157 -158) =      5.11336  eV     2   --> G_5  D_5       
     e(159 -160) =      5.66237  eV     2   --> G_5  D_5       
     e(161 -162) =      6.11728  eV     2   --> G_5  D_5       
     e(163 -164) =      6.56411  eV     2   --> G_5  D_5       
     e(165 -166) =      7.48479  eV     2   --> G_5  D_5       
     e(167 -168) =      7.58048  eV     2   --> G_5  D_5       
     e(169 -170) =      7.73689  eV     2   --> G_5  D_5       
     e(171 -172) =      7.79508  eV     2   --> G_5  D_5       
     e(173 -174) =      8.18912  eV     2   --> G_5  D_5       
     e(175 -176) =      8.43285  eV     2   --> G_5  D_5       
     e(177 -178) =      8.63344  eV     2   --> G_5  D_5       
     e(179 -180) =      8.78902  eV     2   --> G_5  D_5       
     e(181 -182) =      9.71270  eV     2   --> G_5  D_5       
     e(183 -184) =     10.43060  eV     2   --> G_5  D_5       
     e(185 -186) =     11.55526  eV     2   --> G_5  D_5       
     e(187 -188) =     12.06354  eV     2   --> G_5  D_5       
     e(189 -190) =     12.29745  eV     2   --> G_5  D_5       
     e(191 -192) =     12.46213  eV     2   --> G_5  D_5       
     e(193 -194) =     12.56141  eV     2   --> G_5  D_5       
     e(195 -196) =     12.79507  eV     2   --> G_5  D_5       
     e(197 -198) =     13.41243  eV     2   --> G_5  D_5       
     e(199 -200) =     13.47051  eV     2   --> G_5  D_5       
     e(201 -202) =     13.59165  eV     2   --> G_5  D_5       
     e(203 -204) =     14.05241  eV     2   --> G_5  D_5       
     e(205 -206) =     14.16752  eV     2   --> G_5  D_5       
     e(207 -208) =     14.25479  eV     2   --> G_5  D_5       
     e(209 -210) =     14.54218  eV     2   --> G_5  D_5       
     e(211 -212) =     14.97582  eV     2   --> G_5  D_5       

 **************************************************************************

 **************************************************************************

                    xk=(   0.10000,   0.00000,   0.00000  )

     Band symmetry, C_2v (mm2)  double point group:

     e(  1 -  4) =    -94.14942  eV     4   -->   2 G_5  D_5       
     e(  5 -  8) =    -94.14925  eV     4   -->   2 G_5  D_5       
     e(  9 - 12) =    -59.25157  eV     4   -->   2 G_5  D_5       
     e( 13 - 16) =    -59.25057  eV     4   -->   2 G_5  D_5       
     e( 17 - 20) =    -53.43539  eV     4   -->   2 G_5  D_5       
     e( 21 - 24) =    -53.43315  eV     4   -->   2 G_5  D_5       
     e( 25 - 28) =    -53.42474  eV     4   -->   2 G_5  D_5       
     e( 29 - 32) =    -53.42373  eV     4   -->   2 G_5  D_5       
     e( 33 - 34) =    -43.93686  eV     2   --> G_5  D_5       
     e( 35 - 36) =    -43.93666  eV     2   --> G_5  D_5       
     e( 37 - 38) =    -43.93596  eV     2   --> G_5  D_5       
     e( 39 - 40) =    -43.93576  eV     2   --> G_5  D_5       
     e( 41 - 48) =    -26.89989  eV     8   -->   4 G_5  D_5       
     e( 49 - 56) =    -26.85783  eV     8   -->   4 G_5  D_5       
     e( 57 - 64) =    -26.17967  eV     8   -->   4 G_5  D_5       
     e( 65 - 72) =    -26.14743  eV     8   -->   4 G_5  D_5       
     e( 73 - 80) =    -26.12477  eV     8   -->   4 G_5  D_5       
     e( 81 - 82) =    -15.99173  eV     2   --> G_5  D_5       
     e( 83 - 84) =    -15.98988  eV     2   --> G_5  D_5       
     e( 85 - 86) =    -15.98536  eV     2   --> G_5  D_5       
     e( 87 - 88) =    -15.98281  eV     2   --> G_5  D_5       
     e( 89 - 90) =    -15.81884  eV     2   --> G_5  D_5       
     e( 91 - 92) =    -15.81809  eV     2   --> G_5  D_5       
     e( 93 - 94) =    -15.81119  eV     2   --> G_5  D_5       
     e( 95 - 96) =    -15.80776  eV     2   --> G_5  D_5       
     e( 97 - 98) =    -15.80636  eV     2   --> G_5  D_5       
     e( 99 -100) =    -15.80258  eV     2   --> G_5  D_5       
     e(101 -102) =    -15.80173  eV     2   --> G_5  D_5       
     e(103 -104) =    -15.80005  eV     2   --> G_5  D_5       
     e(105 -106) =     -2.49252  eV     2   --> G_5  D_5       
     e(107 -108) =     -2.14638  eV     2   --> G_5  D_5       
     e(109 -110) =     -2.05727  eV     2   --> G_5  D_5       
     e(111 -112) =     -2.03288  eV     2   --> G_5  D_5       
     e(113 -114) =     -0.61689  eV     2   --> G_5  D_5       
     e(115 -116) =     -0.60763  eV     2   --> G_5  D_5       
     e(117 -118) =     -0.55367  eV     2   --> G_5  D_5       
     e(119 -120) =     -0.53081  eV     2   --> G_5  D_5       
     e(121 -122) =     -0.50612  eV     2   --> G_5  D_5       
     e(123 -124) =     -0.43853  eV     2   --> G_5  D_5       
     e(125 -126) =     -0.41476  eV     2   --> G_5  D_5       
     e(127 -128) =     -0.18711  eV     2   --> G_5  D_5       
     e(129 -130) =     -0.00740  eV     2   --> G_5  D_5       
     e(131 -132) =      0.03226  eV     2   --> G_5  D_5       
     e(133 -134) =      0.10587  eV     2   --> G_5  D_5       
     e(135 -136) =      0.11922  eV     2   --> G_5  D_5       
     e(137 -138) =      0.16913  eV     2   --> G_5  D_5       
     e(139 -140) =      0.17266  eV     2   --> G_5  D_5       
     e(141 -142) =      0.18087  eV     2   --> G_5  D_5       
     e(143 -144) =      0.22359  eV     2   --> G_5  D_5       
     e(145 -146) =      0.26757  eV     2   --> G_5  D_5       
     e(147 -148) =      0.40327  eV     2   --> G_5  D_5       
     e(149 -150) =      0.48528  eV     2   --> G_5  D_5       
     e(151 -152) =      0.54713  eV     2   --> G_5  D_5       
     e(153 -154) =      3.51300  eV     2   --> G_5  D_5       
     e(155 -156) =      4.01864  eV     2   --> G_5  D_5       
     e(157 -158) =      5.11135  eV     2   --> G_5  D_5       
     e(159 -160) =      5.67311  eV     2   --> G_5  D_5       
     e(161 -162) =      6.13339  eV     2   --> G_5  D_5       
     e(163 -164) =      6.56675  eV     2   --> G_5  D_5       
     e(165 -166) =      7.47696  eV     2   --> G_5  D_5       
     e(167 -168) =      7.57423  eV     2   --> G_5  D_5       
     e(169 -170) =      7.71568  eV     2   --> G_5  D_5       
     e(171 -172) =      7.80374  eV     2   --> G_5  D_5       
     e(173 -174) =      8.18786  eV     2   --> G_5  D_5       
     e(175 -176) =      8.43164  eV     2   --> G_5  D_5       
     e(177 -178) =      8.65618  eV     2   --> G_5  D_5       
     e(179 -180) =      8.79130  eV     2   --> G_5  D_5       
     e(181 -182) =      9.71527  eV     2   --> G_5  D_5       
     e(183 -184) =     10.41329  eV     2   --> G_5  D_5       
     e(185 -186) =     11.56766  eV     2   --> G_5  D_5       
     e(187 -188) =     12.00724  eV     2   --> G_5  D_5       
     e(189 -190) =     12.29637  eV     2   --> G_5  D_5       
     e(191 -192) =     12.45219  eV     2   --> G_5  D_5       
     e(193 -194) =     12.55594  eV     2   --> G_5  D_5       
     e(195 -196) =     12.75946  eV     2   --> G_5  D_5       
     e(197 -198) =     13.40903  eV     2   --> G_5  D_5       
     e(199 -200) =     13.51911  eV     2   --> G_5  D_5       
     e(201 -202) =     13.59502  eV     2   --> G_5  D_5       
     e(203 -204) =     14.06358  eV     2   --> G_5  D_5       
     e(205 -206) =     14.16448  eV     2   --> G_5  D_5       
     e(207 -208) =     14.23241  eV     2   --> G_5  D_5       
     e(209 -210) =     14.54150  eV     2   --> G_5  D_5       
     e(211 -212) =     14.98817  eV     2   --> G_5  D_5       

 **************************************************************************

 **************************************************************************

                    xk=(   0.10833,   0.00000,   0.00000  )

     Band symmetry, C_2v (mm2)  double point group:

     e(  1 -  4) =    -94.14942  eV     4   -->   2 G_5  D_5       
     e(  5 -  8) =    -94.14925  eV     4   -->   2 G_5  D_5       
     e(  9 - 12) =    -59.25157  eV     4   -->   2 G_5  D_5       
     e( 13 - 16) =    -59.25057  eV     4   -->   2 G_5  D_5       
     e( 17 - 20) =    -53.43539  eV     4   -->   2 G_5  D_5       
     e( 21 - 24) =    -53.43315  eV     4   -->   2 G_5  D_5       
     e( 25 - 28) =    -53.42474  eV     4   -->   2 G_5  D_5       
     e( 29 - 32) =    -53.42373  eV     4   -->   2 G_5  D_5       
     e( 33 - 34) =    -43.93686  eV     2   --> G_5  D_5       
     e( 35 - 36) =    -43.93667  eV     2   --> G_5  D_5       
     e( 37 - 38) =    -43.93596  eV     2   --> G_5  D_5       
     e( 39 - 40) =    -43.93576  eV     2   --> G_5  D_5       
     e( 41 - 48) =    -26.89989  eV     8   -->   4 G_5  D_5       
     e( 49 - 56) =    -26.85783  eV     8   -->   4 G_5  D_5       
     e( 57 - 64) =    -26.17967  eV     8   -->   4 G_5  D_5       
[...]

 **************************************************************************

                    xk=(   0.00000,   0.84639,   0.45204  )

     zone border point and non-symmorphic group 
     symmetry decomposition not available

 **************************************************************************

 **************************************************************************

                    xk=(   0.00000,   0.84639,   0.45983  )

     zone border point and non-symmorphic group 
     symmetry decomposition not available

 **************************************************************************

 **************************************************************************

                    xk=(   0.00000,   0.84639,   0.46763  )

     zone border point and non-symmorphic group 
     symmetry decomposition not available

 **************************************************************************

 **************************************************************************

                    xk=(   0.50000,   0.84639,   0.00000  )

     zone border point and non-symmorphic group 
     symmetry decomposition not available

 **************************************************************************

 **************************************************************************

                    xk=(   0.50000,   0.84639,   0.00779  )

     zone border point and non-symmorphic group 
     symmetry decomposition not available

 **************************************************************************

 **************************************************************************

                    xk=(   0.50000,   0.84639,   0.01559  )

     zone border point and non-symmorphic group 
     symmetry decomposition not available

 **************************************************************************

 **************************************************************************

                    xk=(   0.50000,   0.84639,   0.02338  )

     zone border point and non-symmorphic group 
     symmetry decomposition not available

 **************************************************************************

 **************************************************************************

                    xk=(   0.50000,   0.84639,   0.03118  )

     zone border point and non-symmorphic group 
     symmetry decomposition not available

 **************************************************************************

 **************************************************************************

                    xk=(   0.50000,   0.84639,   0.03897  )

     zone border point and non-symmorphic group 
     symmetry decomposition not available

 **************************************************************************

 **************************************************************************

                    xk=(   0.50000,   0.84639,   0.04676  )

     zone border point and non-symmorphic group 
     symmetry decomposition not available

 **************************************************************************

 **************************************************************************

                    xk=(   0.50000,   0.84639,   0.05456  )

     zone border point and non-symmorphic group 
     symmetry decomposition not available

 **************************************************************************

 **************************************************************************

                    xk=(   0.50000,   0.84639,   0.06235  )

     zone border point and non-symmorphic group 
     symmetry decomposition not available

 **************************************************************************

 **************************************************************************

                    xk=(   0.50000,   0.84639,   0.07014  )

     zone border point and non-symmorphic group 
     symmetry decomposition not available

 **************************************************************************

 **************************************************************************

                    xk=(   0.50000,   0.84639,   0.07794  )

     zone border point and non-symmorphic group 
     symmetry decomposition not available

 **************************************************************************

 **************************************************************************

                    xk=(   0.50000,   0.84639,   0.08573  )

     zone border point and non-symmorphic group 
     symmetry decomposition not available

 **************************************************************************

 **************************************************************************

                    xk=(   0.50000,   0.84639,   0.09353  )

     zone border point and non-symmorphic group 
     symmetry decomposition not available

 **************************************************************************

 **************************************************************************

                    xk=(   0.50000,   0.84639,   0.10132  )

     zone border point and non-symmorphic group 
     symmetry decomposition not available

 **************************************************************************

 **************************************************************************

                    xk=(   0.50000,   0.84639,   0.10911  )

     zone border point and non-symmorphic group 
     symmetry decomposition not available

 **************************************************************************

 **************************************************************************

                    xk=(   0.50000,   0.84639,   0.11691  )

     zone border point and non-symmorphic group 
     symmetry decomposition not available

 **************************************************************************

 **************************************************************************

                    xk=(   0.50000,   0.84639,   0.12470  )

     zone border point and non-symmorphic group 
     symmetry decomposition not available

 **************************************************************************

 **************************************************************************

                    xk=(   0.50000,   0.84639,   0.13249  )

     zone border point and non-symmorphic group 
     symmetry decomposition not available

 **************************************************************************

 **************************************************************************

                    xk=(   0.50000,   0.84639,   0.14029  )

     zone border point and non-symmorphic group 
     symmetry decomposition not available

 **************************************************************************

 **************************************************************************

                    xk=(   0.50000,   0.84639,   0.14808  )

     zone border point and non-symmorphic group 
     symmetry decomposition not available

 **************************************************************************

 **************************************************************************

                    xk=(   0.50000,   0.84639,   0.15588  )

     zone border point and non-symmorphic group 
     symmetry decomposition not available

 **************************************************************************

 **************************************************************************

                    xk=(   0.50000,   0.84639,   0.16367  )

     zone border point and non-symmorphic group 
     symmetry decomposition not available

 **************************************************************************

 **************************************************************************

                    xk=(   0.50000,   0.84639,   0.17146  )

     zone border point and non-symmorphic group 
     symmetry decomposition not available

 **************************************************************************

 **************************************************************************

                    xk=(   0.50000,   0.84639,   0.17926  )

     zone border point and non-symmorphic group 
     symmetry decomposition not available

 **************************************************************************

 **************************************************************************

                    xk=(   0.50000,   0.84639,   0.18705  )

     zone border point and non-symmorphic group 
     symmetry decomposition not available

 **************************************************************************

 **************************************************************************

                    xk=(   0.50000,   0.84639,   0.19485  )

     zone border point and non-symmorphic group 
     symmetry decomposition not available

 **************************************************************************

 **************************************************************************

                    xk=(   0.50000,   0.84639,   0.20264  )

     zone border point and non-symmorphic group 
     symmetry decomposition not available

 **************************************************************************

 **************************************************************************

                    xk=(   0.50000,   0.84639,   0.21043  )

     zone border point and non-symmorphic group 
     symmetry decomposition not available

 **************************************************************************

 **************************************************************************

                    xk=(   0.50000,   0.84639,   0.21823  )

     zone border point and non-symmorphic group 
     symmetry decomposition not available

 **************************************************************************

 **************************************************************************

                    xk=(   0.50000,   0.84639,   0.22602  )

     zone border point and non-symmorphic group 
     symmetry decomposition not available

 **************************************************************************

 **************************************************************************

                    xk=(   0.50000,   0.84639,   0.23381  )

     zone border point and non-symmorphic group 
     symmetry decomposition not available

 **************************************************************************

 **************************************************************************

                    xk=(   0.50000,   0.84639,   0.24161  )

     zone border point and non-symmorphic group 
     symmetry decomposition not available

 **************************************************************************

 **************************************************************************

                    xk=(   0.50000,   0.84639,   0.24940  )

     zone border point and non-symmorphic group 
     symmetry decomposition not available

 **************************************************************************

 **************************************************************************

                    xk=(   0.50000,   0.84639,   0.25720  )

     zone border point and non-symmorphic group 
     symmetry decomposition not available

 **************************************************************************

 **************************************************************************

                    xk=(   0.50000,   0.84639,   0.26499  )

     zone border point and non-symmorphic group 
     symmetry decomposition not available

 **************************************************************************

 **************************************************************************

                    xk=(   0.50000,   0.84639,   0.27278  )

     zone border point and non-symmorphic group 
     symmetry decomposition not available

 **************************************************************************

 **************************************************************************

                    xk=(   0.50000,   0.84639,   0.28058  )

     zone border point and non-symmorphic group 
     symmetry decomposition not available

 **************************************************************************

 **************************************************************************

                    xk=(   0.50000,   0.84639,   0.28837  )

     zone border point and non-symmorphic group 
     symmetry decomposition not available

 **************************************************************************

 **************************************************************************

                    xk=(   0.50000,   0.84639,   0.29616  )

     zone border point and non-symmorphic group 
     symmetry decomposition not available

 **************************************************************************

 **************************************************************************

                    xk=(   0.50000,   0.84639,   0.30396  )

     zone border point and non-symmorphic group 
     symmetry decomposition not available

 **************************************************************************

 **************************************************************************

                    xk=(   0.50000,   0.84639,   0.31175  )

     zone border point and non-symmorphic group 
     symmetry decomposition not available

 **************************************************************************

 **************************************************************************

                    xk=(   0.50000,   0.84639,   0.31955  )

     zone border point and non-symmorphic group 
     symmetry decomposition not available

 **************************************************************************

 **************************************************************************

                    xk=(   0.50000,   0.84639,   0.32734  )

     zone border point and non-symmorphic group 
     symmetry decomposition not available

 **************************************************************************

 **************************************************************************

                    xk=(   0.50000,   0.84639,   0.33513  )

     zone border point and non-symmorphic group 
     symmetry decomposition not available

 **************************************************************************

 **************************************************************************

                    xk=(   0.50000,   0.84639,   0.34293  )

     zone border point and non-symmorphic group 
     symmetry decomposition not available

 **************************************************************************

 **************************************************************************

                    xk=(   0.50000,   0.84639,   0.35072  )

     zone border point and non-symmorphic group 
     symmetry decomposition not available

 **************************************************************************

 **************************************************************************

                    xk=(   0.50000,   0.84639,   0.35852  )

     zone border point and non-symmorphic group 
     symmetry decomposition not available

 **************************************************************************

 **************************************************************************

                    xk=(   0.50000,   0.84639,   0.36631  )

     zone border point and non-symmorphic group 
     symmetry decomposition not available

 **************************************************************************

 **************************************************************************

                    xk=(   0.50000,   0.84639,   0.37410  )

     zone border point and non-symmorphic group 
     symmetry decomposition not available

 **************************************************************************

 **************************************************************************

                    xk=(   0.50000,   0.84639,   0.38190  )

     zone border point and non-symmorphic group 
     symmetry decomposition not available

 **************************************************************************

 **************************************************************************

                    xk=(   0.50000,   0.84639,   0.38969  )

     zone border point and non-symmorphic group 
     symmetry decomposition not available

 **************************************************************************

 **************************************************************************

                    xk=(   0.50000,   0.84639,   0.39748  )

     zone border point and non-symmorphic group 
     symmetry decomposition not available

 **************************************************************************

 **************************************************************************

                    xk=(   0.50000,   0.84639,   0.40528  )

     zone border point and non-symmorphic group 
     symmetry decomposition not available

 **************************************************************************

 **************************************************************************

                    xk=(   0.50000,   0.84639,   0.41307  )

     zone border point and non-symmorphic group 
     symmetry decomposition not available

 **************************************************************************

 **************************************************************************

                    xk=(   0.50000,   0.84639,   0.42087  )

     zone border point and non-symmorphic group 
     symmetry decomposition not available

 **************************************************************************

 **************************************************************************

                    xk=(   0.50000,   0.84639,   0.42866  )

     zone border point and non-symmorphic group 
     symmetry decomposition not available

 **************************************************************************

 **************************************************************************

                    xk=(   0.50000,   0.84639,   0.43645  )

     zone border point and non-symmorphic group 
     symmetry decomposition not available

 **************************************************************************

 **************************************************************************

                    xk=(   0.50000,   0.84639,   0.44425  )

     zone border point and non-symmorphic group 
     symmetry decomposition not available

 **************************************************************************

 **************************************************************************

                    xk=(   0.50000,   0.84639,   0.45204  )

     zone border point and non-symmorphic group 
     symmetry decomposition not available

 **************************************************************************

 **************************************************************************

                    xk=(   0.50000,   0.84639,   0.45983  )

     zone border point and non-symmorphic group 
     symmetry decomposition not available

 **************************************************************************

 **************************************************************************

                    xk=(   0.50000,   0.84639,   0.46763  )

     zone border point and non-symmorphic group 
     symmetry decomposition not available

 **************************************************************************
 
     BANDS        :  49m 4.74s CPU      1h 0m WALL

 
   This run was terminated on:   8:35:38  28Nov2020            

=------------------------------------------------------------------------------=
   JOB DONE.
=------------------------------------------------------------------------------=
