mpijob CMD    : mpirun -f /tmp/mpiexec.params.k050801.111652
mpijob PARAMS : -d /home/k0508/k050801/qeirreps/ver_5/qeirreps/bilbao_sample/NaCdAs
        r1i5n0 10 omplace -nt 4 "/home/k0508/k050801/qe-6.6/bin/pw.x"

SGI MPT Placement option
--------------------------
omplace -nt 4

Node   MPI
------------
r1i5n0 10


     Program PWSCF v.6.6 starts on 28Nov2020 at  2:30:45 

     This program is part of the open-source Quantum ESPRESSO suite
     for quantum simulation of materials; please cite
         "P. Giannozzi et al., J. Phys.:Condens. Matter 21 395502 (2009);
         "P. Giannozzi et al., J. Phys.:Condens. Matter 29 465901 (2017);
          URL http://www.quantum-espresso.org", 
     in publications or presentations arising from this work. More details at
     http://www.quantum-espresso.org/quote

     Parallel version (MPI), running on    10 processors

     MPI processes distributed on     1 nodes
     R & G space division:  proc/nbgrp/npool/nimage =      10
     Fft bands division:     nmany     =       1
     Waiting for input...
     Reading input from standard input

     Current dimensions of program PWSCF are:
     Max number of different atomic species (ntypx) = 10
     Max number of k-points (npk) =  40000
     Max angular momentum in pseudopotentials (lmaxx) =  3

     Atomic positions and unit cell read from directory:
     /work/k0508/k050801/NaCdAs/rep/NaCdAs.save/
     Atomic positions from file used, from input discarded
 

     Subspace diagonalization in iterative solution of the eigenvalue problem:
     a serial algorithm will be used

     Message from routine setup:
     using ibrav=0 with symmetry is DISCOURAGED, use correct ibrav instead
 
     Parallelization info
     --------------------
     sticks:   dense  smooth     PW     G-vecs:    dense   smooth      PW
     Min         393     393    107                25773    25773    3703
     Max         394     394    108                25776    25776    3706
     Sum        3935    3935   1077               257753   257753   37043
 


     bravais-lattice index     =            0
     lattice parameter (alat)  =      14.4554  a.u.
     unit-cell volume          =    1907.9148 (a.u.)^3
     number of atoms/cell      =           12
     number of atomic types    =            3
     number of electrons       =       176.00
     number of Kohn-Sham states=          212
     kinetic-energy cutoff     =     100.0000  Ry
     charge density cutoff     =     400.0000  Ry
     Exchange-correlation= PBE
                           (   1   4   3   4   0   0   0)
     Non magnetic calculation with spin-orbit


     celldm(1)=  14.455424  celldm(2)=   0.000000  celldm(3)=   0.000000
     celldm(4)=   0.000000  celldm(5)=   0.000000  celldm(6)=   0.000000

     crystal axes: (cart. coord. in units of alat)
               a(1) = (   1.000000   0.000000   0.000000 )  
               a(2) = (   0.000000   0.590742   0.000000 )  
               a(3) = (   0.000000   0.000000   1.069224 )  

     reciprocal axes: (cart. coord. in units 2 pi/alat)
               b(1) = (  1.000000  0.000000  0.000000 )  
               b(2) = (  0.000000  1.692787  0.000000 )  
               b(3) = (  0.000000  0.000000  0.935257 )  


     PseudoPot. # 1 for Na read from file:
     ../../pseudo/soc/Na.upf
     MD5 check sum: 5cc9e3e9635f0b9e0056521f6116a380
     Pseudo is Norm-conserving, Zval =  9.0
     Generated using ONCVPSP code by D. R. Hamann
     Using radial grid of 1992 points,  6 beta functions with: 
                l(1) =   0
                l(2) =   0
                l(3) =   1
                l(4) =   1
                l(5) =   1
                l(6) =   1

     PseudoPot. # 2 for Cd read from file:
     ../../pseudo/soc/Cd.upf
     MD5 check sum: fc9988adff5645b1bce1836ec33f834f
     Pseudo is Norm-conserving + core correction, Zval = 20.0
     Generated using ONCVPSP code by D. R. Hamann
     Using radial grid of 1368 points, 10 beta functions with: 
                l(1) =   0
                l(2) =   0
                l(3) =   1
                l(4) =   1
                l(5) =   1
                l(6) =   1
                l(7) =   2
                l(8) =   2
                l(9) =   2
               l(10) =   2

     PseudoPot. # 3 for As read from file:
     ../../pseudo/soc/As.upf
     MD5 check sum: 92566e412f0eca4e698ac3407aa21570
     Pseudo is Norm-conserving + core correction, Zval = 15.0
     Generated using ONCVPSP code by D. R. Hamann
     Using radial grid of 1358 points, 10 beta functions with: 
                l(1) =   0
                l(2) =   0
                l(3) =   1
                l(4) =   1
                l(5) =   1
                l(6) =   1
                l(7) =   2
                l(8) =   2
                l(9) =   2
               l(10) =   2

     atomic species   valence    mass     pseudopotential
        Na             9.00    22.98977     Na( 1.00)
        Cd            20.00   112.41100     Cd( 1.00)
        As            15.00    74.92160     As( 1.00)

      8 Sym. Ops., with inversion, found ( 6 have fractional translation)



   Cartesian axes

     site n.     atom                  positions (alat units)
         1           Na  tau(   1) = (   0.0184820   0.1476854   0.1854666  )
         2           Na  tau(   2) = (   0.9815180   0.4430562   0.8837578  )
         3           Na  tau(   3) = (   0.4815180   0.4430562   0.7200788  )
         4           Na  tau(   4) = (   0.5184820   0.1476854   0.3491456  )
         5           Cd  tau(   5) = (   0.1500210   0.1476854   0.6141764  )
         6           Cd  tau(   6) = (   0.8499790   0.4430562   0.4550480  )
         7           Cd  tau(   7) = (   0.3499790   0.4430562   0.0795642  )
         8           Cd  tau(   8) = (   0.6500210   0.1476854   0.9896602  )
         9           As  tau(   9) = (   0.2214520   0.4430562   0.4178369  )
        10           As  tau(  10) = (   0.7785480   0.1476854   0.6513876  )
        11           As  tau(  11) = (   0.2785480   0.1476854   0.9524491  )
        12           As  tau(  12) = (   0.7214520   0.4430562   0.1167753  )

     number of k points=     8  Methfessel-Paxton smearing, width (Ry)=  0.0100
                       cart. coord. in units 2pi/alat
        k(    1) = (   0.0000000   0.0000000   0.0000000), wk =   0.1250000
        k(    2) = (   0.5000000   0.0000000   0.0000000), wk =   0.1250000
        k(    3) = (   0.0000000   0.8463937   0.0000000), wk =   0.1250000
        k(    4) = (   0.0000000   0.0000000   0.4676287), wk =   0.1250000
        k(    5) = (   0.0000000   0.8463937   0.4676287), wk =   0.1250000
        k(    6) = (   0.5000000   0.0000000   0.4676287), wk =   0.1250000
        k(    7) = (   0.5000000   0.8463937   0.0000000), wk =   0.1250000
        k(    8) = (   0.5000000   0.8463937   0.4676287), wk =   0.1250000

     Dense  grid:   257753 G-vectors     FFT dimensions: (  96,  60, 100)

     Estimated max dynamical RAM per process >     161.21 MB

     Estimated total dynamical RAM >       1.57 GB

     The potential is recalculated from file :
     /work/k0508/k050801/NaCdAs/rep/NaCdAs.save/charge-density

     Starting wfcs are  192 randomized atomic wfcs +   20 random wfcs

     Band Structure Calculation
     Davidson diagonalization with overlap

     ethr =  5.68E-12,  avg # of iterations = 46.9

     total cpu time spent up to now is      195.4 secs

     End of band structure calculation

          k = 0.0000 0.0000 0.0000 ( 32189 PWs)   bands (ev):

   -94.1494 -94.1494 -94.1494 -94.1494 -94.1493 -94.1493 -94.1493 -94.1493
   -59.2516 -59.2516 -59.2516 -59.2516 -59.2506 -59.2506 -59.2506 -59.2506
   -53.4354 -53.4354 -53.4354 -53.4354 -53.4332 -53.4332 -53.4331 -53.4331
   -53.4247 -53.4247 -53.4247 -53.4247 -53.4237 -53.4237 -53.4237 -53.4237
   -43.9369 -43.9369 -43.9367 -43.9367 -43.9360 -43.9360 -43.9358 -43.9358
   -26.8999 -26.8999 -26.8999 -26.8999 -26.8998 -26.8998 -26.8998 -26.8998
   -26.8578 -26.8578 -26.8578 -26.8578 -26.8578 -26.8578 -26.8578 -26.8578
   -26.1797 -26.1797 -26.1796 -26.1796 -26.1796 -26.1796 -26.1796 -26.1796
   -26.1474 -26.1474 -26.1474 -26.1474 -26.1474 -26.1474 -26.1473 -26.1473
   -26.1248 -26.1248 -26.1247 -26.1247 -26.1247 -26.1247 -26.1247 -26.1247
   -15.9918 -15.9918 -15.9898 -15.9898 -15.9854 -15.9854 -15.9827 -15.9827
   -15.8189 -15.8189 -15.8181 -15.8181 -15.8113 -15.8113 -15.8076 -15.8076
   -15.8065 -15.8065 -15.8024 -15.8024 -15.8018 -15.8018 -15.8000 -15.8000
    -2.5017  -2.5017  -2.1366  -2.1366  -2.0606  -2.0606  -2.0334  -2.0334
    -0.6171  -0.6171  -0.6073  -0.6073  -0.5555  -0.5555  -0.5314  -0.5314
    -0.5059  -0.5059  -0.4290  -0.4290  -0.4240  -0.4240  -0.1781  -0.1781
    -0.0027  -0.0027   0.0279   0.0279   0.1050   0.1050   0.1184   0.1184
     0.1690   0.1690   0.1728   0.1728   0.1835   0.1835   0.2206   0.2206
     0.2678   0.2678   0.4337   0.4337   0.4734   0.4734   0.5363   0.5363
     3.4986   3.4986   4.0636   4.0636   5.1293   5.1293   5.6019   5.6019
     6.0270   6.0270   6.5502   6.5502   7.5202   7.5202   7.6254   7.6254
     7.7265   7.7265   7.9221   7.9221   8.1699   8.1699   8.4237   8.4237
     8.4977   8.4977   8.7771   8.7771   9.6989   9.6989  10.5327  10.5327
    11.4763  11.4763  12.2920  12.2920  12.5031  12.5031  12.5313  12.5313
    12.6938  12.6938  12.9156  12.9156  13.0176  13.0176  13.4758  13.4758
    13.5814  13.5814  13.9712  13.9712  14.1905  14.1905  14.4705  14.4705
    14.5589  14.5589  14.8136  14.8136

          k = 0.5000 0.0000 0.0000 ( 32254 PWs)   bands (ev):

   -94.1494 -94.1494 -94.1494 -94.1494 -94.1493 -94.1493 -94.1493 -94.1493
   -59.2516 -59.2516 -59.2516 -59.2516 -59.2506 -59.2506 -59.2506 -59.2506
   -53.4354 -53.4354 -53.4354 -53.4354 -53.4331 -53.4331 -53.4331 -53.4331
   -53.4247 -53.4247 -53.4247 -53.4247 -53.4237 -53.4237 -53.4237 -53.4237
   -43.9368 -43.9368 -43.9368 -43.9368 -43.9359 -43.9359 -43.9359 -43.9359
   -26.8999 -26.8999 -26.8999 -26.8999 -26.8998 -26.8998 -26.8998 -26.8998
   -26.8578 -26.8578 -26.8578 -26.8578 -26.8578 -26.8578 -26.8578 -26.8578
   -26.1797 -26.1797 -26.1797 -26.1797 -26.1796 -26.1796 -26.1796 -26.1796
   -26.1474 -26.1474 -26.1474 -26.1474 -26.1473 -26.1473 -26.1473 -26.1473
   -26.1247 -26.1247 -26.1247 -26.1247 -26.1247 -26.1247 -26.1247 -26.1247
   -15.9908 -15.9908 -15.9908 -15.9908 -15.9841 -15.9841 -15.9841 -15.9841
   -15.8184 -15.8184 -15.8184 -15.8184 -15.8093 -15.8093 -15.8093 -15.8093
   -15.8045 -15.8045 -15.8045 -15.8045 -15.8011 -15.8011 -15.8011 -15.8011
    -2.3169  -2.3169  -2.3169  -2.3169  -2.0318  -2.0318  -2.0318  -2.0318
    -0.6126  -0.6126  -0.6126  -0.6126  -0.5257  -0.5257  -0.5257  -0.5257
    -0.4968  -0.4968  -0.4968  -0.4968  -0.3293  -0.3293  -0.3293  -0.3293
     0.0131   0.0131   0.0131   0.0131   0.1108   0.1108   0.1108   0.1108
     0.1646   0.1646   0.1646   0.1646   0.2155   0.2155   0.2155   0.2155
     0.2651   0.2651   0.2651   0.2651   0.5558   0.5558   0.5558   0.5558
     3.6438   3.6438   3.6438   3.6438   5.6363   5.6363   5.6363   5.6363
     6.9203   6.9203   6.9203   6.9203   7.1247   7.1247   7.1247   7.1247
     7.8310   7.8310   7.8310   7.8310   8.2014   8.2014   8.2014   8.2014
     8.9954   8.9954   8.9954   8.9954   9.7480   9.7480   9.7480   9.7480
    10.7979  10.7979  10.7979  10.7979  12.3031  12.3031  12.3031  12.3031
    12.5585  12.5585  12.5585  12.5585  12.6262  12.6262  12.6262  12.6262
    14.3320  14.3320  14.3320  14.3320  14.7179  14.7179  14.7179  14.7179
    14.9390  14.9390  14.9390  14.9390

          k = 0.0000 0.8464 0.0000 ( 32224 PWs)   bands (ev):

   -94.1493 -94.1493 -94.1493 -94.1493 -94.1493 -94.1493 -94.1493 -94.1493
   -59.2511 -59.2511 -59.2511 -59.2511 -59.2511 -59.2511 -59.2511 -59.2511
   -53.4344 -53.4344 -53.4344 -53.4344 -53.4344 -53.4344 -53.4344 -53.4344
   -53.4242 -53.4242 -53.4242 -53.4242 -53.4242 -53.4242 -53.4242 -53.4242
   -43.9364 -43.9364 -43.9364 -43.9364 -43.9362 -43.9362 -43.9362 -43.9362
   -26.8999 -26.8999 -26.8999 -26.8999 -26.8998 -26.8998 -26.8998 -26.8998
   -26.8578 -26.8578 -26.8578 -26.8578 -26.8578 -26.8578 -26.8578 -26.8578
   -26.1796 -26.1796 -26.1796 -26.1796 -26.1796 -26.1796 -26.1796 -26.1796
   -26.1474 -26.1474 -26.1474 -26.1474 -26.1473 -26.1473 -26.1473 -26.1473
   -26.1247 -26.1247 -26.1247 -26.1247 -26.1247 -26.1247 -26.1247 -26.1247
   -15.9892 -15.9892 -15.9892 -15.9892 -15.9871 -15.9871 -15.9871 -15.9871
   -15.8161 -15.8161 -15.8161 -15.8161 -15.8139 -15.8139 -15.8139 -15.8139
   -15.8047 -15.8047 -15.8047 -15.8047 -15.8013 -15.8013 -15.8013 -15.8013
    -2.0979  -2.0979  -2.0979  -2.0979  -1.9899  -1.9899  -1.9899  -1.9899
    -0.5629  -0.5629  -0.5629  -0.5629  -0.5193  -0.5193  -0.5193  -0.5193
    -0.4428  -0.4428  -0.4428  -0.4428  -0.1696  -0.1696  -0.1696  -0.1696
     0.0724   0.0724   0.0724   0.0724   0.1382   0.1382   0.1382   0.1382
     0.1585   0.1585   0.1585   0.1585   0.2110   0.2110   0.2110   0.2110
     0.4311   0.4311   0.4311   0.4311   0.6691   0.6691   0.6691   0.6691
     3.9729   3.9729   3.9729   3.9729   4.4534   4.4534   4.4534   4.4534
     5.6133   5.6133   5.6133   5.6133   5.9501   5.9501   5.9501   5.9501
     6.7870   6.7870   6.7870   6.7870   7.3626   7.3626   7.3626   7.3626
    10.1546  10.1546  10.1546  10.1546  10.9376  10.9376  10.9376  10.9376
    12.0184  12.0184  12.0184  12.0184  12.1730  12.1730  12.1730  12.1730
    12.5187  12.5187  12.5187  12.5187  13.1980  13.1980  13.1980  13.1980
    14.1908  14.1908  14.1908  14.1908  14.5203  14.5203  14.5203  14.5203
    15.4477  15.4477  15.4477  15.4477

          k = 0.0000 0.0000 0.4676 ( 32218 PWs)   bands (ev):

   -94.1494 -94.1494 -94.1494 -94.1494 -94.1493 -94.1493 -94.1493 -94.1493
   -59.2516 -59.2516 -59.2516 -59.2516 -59.2506 -59.2506 -59.2506 -59.2506
   -53.4354 -53.4354 -53.4354 -53.4354 -53.4332 -53.4332 -53.4332 -53.4332
   -53.4247 -53.4247 -53.4247 -53.4247 -53.4237 -53.4237 -53.4237 -53.4237
   -43.9368 -43.9368 -43.9368 -43.9368 -43.9358 -43.9358 -43.9358 -43.9358
   -26.8999 -26.8999 -26.8999 -26.8999 -26.8998 -26.8998 -26.8998 -26.8998
   -26.8578 -26.8578 -26.8578 -26.8578 -26.8578 -26.8578 -26.8578 -26.8578
   -26.1796 -26.1796 -26.1796 -26.1796 -26.1796 -26.1796 -26.1796 -26.1796
   -26.1474 -26.1474 -26.1474 -26.1474 -26.1473 -26.1473 -26.1473 -26.1473
   -26.1248 -26.1248 -26.1248 -26.1248 -26.1247 -26.1247 -26.1247 -26.1247
   -15.9910 -15.9910 -15.9910 -15.9910 -15.9839 -15.9839 -15.9839 -15.9839
   -15.8184 -15.8184 -15.8184 -15.8184 -15.8100 -15.8100 -15.8100 -15.8100
   -15.8043 -15.8043 -15.8043 -15.8043 -15.8006 -15.8006 -15.8006 -15.8006
    -2.3063  -2.3063  -2.3063  -2.3063  -2.0612  -2.0612  -2.0612  -2.0612
    -0.5833  -0.5833  -0.5833  -0.5833  -0.5496  -0.5496  -0.5496  -0.5496
    -0.5144  -0.5144  -0.5144  -0.5144  -0.3054  -0.3054  -0.3054  -0.3054
     0.0254   0.0254   0.0254   0.0254   0.0966   0.0966   0.0966   0.0966
     0.1600   0.1600   0.1600   0.1600   0.2011   0.2011   0.2011   0.2011
     0.2696   0.2696   0.2696   0.2696   0.5828   0.5828   0.5828   0.5828
     4.0979   4.0979   4.0979   4.0979   5.4282   5.4282   5.4282   5.4282
     5.9487   5.9487   5.9487   5.9487   7.0143   7.0143   7.0143   7.0143
     7.7199   7.7199   7.7199   7.7199   8.0199   8.0199   8.0199   8.0199
     9.9288   9.9288   9.9288   9.9288  10.1326  10.1326  10.1326  10.1326
    11.6657  11.6657  11.6657  11.6657  12.4973  12.4973  12.4973  12.4973
    13.0721  13.0721  13.0721  13.0721  13.2169  13.2169  13.2169  13.2169
    13.5301  13.5301  13.5301  13.5301  14.1532  14.1532  14.1532  14.1532
    14.3179  14.3179  14.3179  14.3179

          k = 0.0000 0.8464 0.4676 ( 32168 PWs)   bands (ev):

   -94.1493 -94.1493 -94.1493 -94.1493 -94.1493 -94.1493 -94.1493 -94.1493
   -59.2511 -59.2511 -59.2511 -59.2511 -59.2511 -59.2511 -59.2511 -59.2511
   -53.4344 -53.4344 -53.4344 -53.4344 -53.4344 -53.4344 -53.4344 -53.4344
   -53.4242 -53.4242 -53.4242 -53.4242 -53.4242 -53.4242 -53.4242 -53.4242
   -43.9364 -43.9364 -43.9364 -43.9364 -43.9362 -43.9362 -43.9362 -43.9362
   -26.8999 -26.8999 -26.8999 -26.8999 -26.8998 -26.8998 -26.8998 -26.8998
   -26.8578 -26.8578 -26.8578 -26.8578 -26.8578 -26.8578 -26.8578 -26.8578
   -26.1796 -26.1796 -26.1796 -26.1796 -26.1795 -26.1795 -26.1795 -26.1795
   -26.1474 -26.1474 -26.1474 -26.1474 -26.1473 -26.1473 -26.1473 -26.1473
   -26.1247 -26.1247 -26.1247 -26.1247 -26.1247 -26.1247 -26.1247 -26.1247
   -15.9892 -15.9892 -15.9892 -15.9892 -15.9871 -15.9871 -15.9871 -15.9871
   -15.8159 -15.8159 -15.8159 -15.8159 -15.8143 -15.8143 -15.8143 -15.8143
   -15.8046 -15.8046 -15.8046 -15.8046 -15.8013 -15.8013 -15.8013 -15.8013
    -2.0936  -2.0936  -2.0936  -2.0936  -1.9920  -1.9920  -1.9920  -1.9920
    -0.5580  -0.5580  -0.5580  -0.5580  -0.5182  -0.5182  -0.5182  -0.5182
    -0.3925  -0.3925  -0.3925  -0.3925  -0.2588  -0.2588  -0.2588  -0.2588
     0.0934   0.0934   0.0934   0.0934   0.1345   0.1345   0.1345   0.1345
     0.1746   0.1746   0.1746   0.1746   0.2227   0.2227   0.2227   0.2227
     0.4804   0.4804   0.4804   0.4804   0.6123   0.6123   0.6123   0.6123
     3.6188   3.6188   3.6188   3.6188   4.5760   4.5760   4.5760   4.5760
     5.8846   5.8846   5.8846   5.8846   6.0332   6.0332   6.0332   6.0332
     7.3232   7.3232   7.3232   7.3232   7.4783   7.4783   7.4783   7.4783
     9.3675   9.3675   9.3675   9.3675   9.7495   9.7495   9.7495   9.7495
    11.3870  11.3870  11.3870  11.3870  12.6860  12.6860  12.6860  12.6860
    13.2240  13.2240  13.2240  13.2240  13.7587  13.7587  13.7587  13.7587
    14.1000  14.1000  14.1000  14.1000  14.8246  14.8246  14.8246  14.8246
    15.7501  15.7501  15.7501  15.7501

          k = 0.5000 0.0000 0.4676 ( 32308 PWs)   bands (ev):

   -94.1494 -94.1494 -94.1494 -94.1494 -94.1493 -94.1493 -94.1493 -94.1493
   -59.2516 -59.2516 -59.2516 -59.2516 -59.2506 -59.2506 -59.2506 -59.2506
   -53.4354 -53.4354 -53.4354 -53.4354 -53.4332 -53.4332 -53.4332 -53.4332
   -53.4247 -53.4247 -53.4247 -53.4247 -53.4237 -53.4237 -53.4237 -53.4237
   -43.9368 -43.9368 -43.9368 -43.9368 -43.9359 -43.9359 -43.9359 -43.9359
   -26.8999 -26.8999 -26.8999 -26.8999 -26.8998 -26.8998 -26.8998 -26.8998
   -26.8578 -26.8578 -26.8578 -26.8578 -26.8578 -26.8578 -26.8578 -26.8578
   -26.1796 -26.1796 -26.1796 -26.1796 -26.1796 -26.1796 -26.1796 -26.1796
   -26.1474 -26.1474 -26.1474 -26.1474 -26.1473 -26.1473 -26.1473 -26.1473
   -26.1247 -26.1247 -26.1247 -26.1247 -26.1247 -26.1247 -26.1247 -26.1247
   -15.9907 -15.9907 -15.9907 -15.9907 -15.9841 -15.9841 -15.9841 -15.9841
   -15.8183 -15.8183 -15.8183 -15.8183 -15.8094 -15.8094 -15.8094 -15.8094
   -15.8046 -15.8046 -15.8046 -15.8046 -15.8011 -15.8011 -15.8011 -15.8011
    -2.2250  -2.2250  -2.2250  -2.2250  -2.1215  -2.1215  -2.1215  -2.1215
    -0.5849  -0.5849  -0.5849  -0.5849  -0.5605  -0.5605  -0.5605  -0.5605
    -0.4842  -0.4842  -0.4842  -0.4842  -0.3463  -0.3463  -0.3463  -0.3463
     0.0766   0.0766   0.0766   0.0766   0.0808   0.0808   0.0808   0.0808
     0.1447   0.1447   0.1447   0.1447   0.2431   0.2431   0.2431   0.2431
     0.2720   0.2720   0.2720   0.2720   0.4191   0.4191   0.4191   0.4191
     4.4715   4.4715   4.4715   4.4715   4.9301   4.9301   4.9301   4.9301
     6.6311   6.6311   6.6311   6.6311   7.1160   7.1160   7.1160   7.1160
     7.4969   7.4969   7.4969   7.4969   7.8717   7.8717   7.8717   7.8717
    10.0135  10.0135  10.0135  10.0135  10.1153  10.1153  10.1153  10.1153
    11.0514  11.0514  11.0514  11.0514  11.8714  11.8714  11.8714  11.8714
    12.7548  12.7548  12.7548  12.7548  13.2715  13.2715  13.2715  13.2715
    13.5708  13.5708  13.5708  13.5708  13.6666  13.6666  13.6666  13.6666
    15.3414  15.3414  15.3414  15.3414

          k = 0.5000 0.8464 0.0000 ( 32240 PWs)   bands (ev):

   -94.1493 -94.1493 -94.1493 -94.1493 -94.1493 -94.1493 -94.1493 -94.1493
   -59.2511 -59.2511 -59.2511 -59.2511 -59.2511 -59.2511 -59.2511 -59.2511
   -53.4344 -53.4344 -53.4344 -53.4344 -53.4344 -53.4344 -53.4344 -53.4344
   -53.4242 -53.4242 -53.4242 -53.4242 -53.4242 -53.4242 -53.4242 -53.4242
   -43.9363 -43.9363 -43.9363 -43.9363 -43.9363 -43.9363 -43.9363 -43.9363
   -26.8999 -26.8999 -26.8999 -26.8999 -26.8998 -26.8998 -26.8998 -26.8998
   -26.8578 -26.8578 -26.8578 -26.8578 -26.8578 -26.8578 -26.8578 -26.8578
   -26.1796 -26.1796 -26.1796 -26.1796 -26.1796 -26.1796 -26.1796 -26.1796
   -26.1474 -26.1474 -26.1474 -26.1474 -26.1473 -26.1473 -26.1473 -26.1473
   -26.1247 -26.1247 -26.1247 -26.1247 -26.1247 -26.1247 -26.1247 -26.1247
   -15.9882 -15.9882 -15.9882 -15.9882 -15.9882 -15.9882 -15.9882 -15.9882
   -15.8150 -15.8150 -15.8150 -15.8150 -15.8149 -15.8149 -15.8149 -15.8149
   -15.8032 -15.8032 -15.8032 -15.8032 -15.8031 -15.8031 -15.8031 -15.8031
    -2.0541  -2.0541  -2.0541  -2.0541  -2.0150  -2.0150  -2.0150  -2.0150
    -0.5550  -0.5550  -0.5550  -0.5550  -0.5373  -0.5373  -0.5373  -0.5373
    -0.4170  -0.4170  -0.4170  -0.4170  -0.2025  -0.2025  -0.2025  -0.2025
     0.0799   0.0799   0.0799   0.0799   0.1189   0.1189   0.1189   0.1189
     0.1825   0.1825   0.1825   0.1825   0.2042   0.2042   0.2042   0.2042
     0.4551   0.4551   0.4551   0.4551   0.5902   0.5902   0.5902   0.5902
     4.1119   4.1119   4.1119   4.1119   4.1421   4.1421   4.1421   4.1421
     5.9028   5.9028   5.9028   5.9028   5.9159   5.9159   5.9159   5.9159
     7.2413   7.2413   7.2413   7.2413   7.2678   7.2678   7.2678   7.2678
    10.6877  10.6877  10.6877  10.6877  10.7098  10.7098  10.7098  10.7098
    11.4689  11.4689  11.4689  11.4689  11.4840  11.4840  11.4840  11.4840
    12.4913  12.4913  12.4913  12.4913  12.5448  12.5448  12.5448  12.5448
    13.8971  13.8971  13.8971  13.8971  13.9265  13.9265  13.9265  13.9265
    16.3547  16.3547  16.3547  16.3547

          k = 0.5000 0.8464 0.4676 ( 32152 PWs)   bands (ev):

   -94.1493 -94.1493 -94.1493 -94.1493 -94.1493 -94.1493 -94.1493 -94.1493
   -59.2511 -59.2511 -59.2511 -59.2511 -59.2511 -59.2511 -59.2511 -59.2511
   -53.4344 -53.4344 -53.4344 -53.4344 -53.4344 -53.4344 -53.4344 -53.4344
   -53.4242 -53.4242 -53.4242 -53.4242 -53.4242 -53.4242 -53.4242 -53.4242
   -43.9363 -43.9363 -43.9363 -43.9363 -43.9363 -43.9363 -43.9363 -43.9363
   -26.8999 -26.8999 -26.8999 -26.8999 -26.8998 -26.8998 -26.8998 -26.8998
   -26.8578 -26.8578 -26.8578 -26.8578 -26.8578 -26.8578 -26.8578 -26.8578
   -26.1796 -26.1796 -26.1796 -26.1796 -26.1795 -26.1795 -26.1795 -26.1795
   -26.1474 -26.1474 -26.1474 -26.1474 -26.1473 -26.1473 -26.1473 -26.1473
   -26.1247 -26.1247 -26.1247 -26.1247 -26.1247 -26.1247 -26.1247 -26.1247
   -15.9882 -15.9882 -15.9882 -15.9882 -15.9881 -15.9881 -15.9881 -15.9881
   -15.8156 -15.8156 -15.8156 -15.8156 -15.8143 -15.8143 -15.8143 -15.8143
   -15.8037 -15.8037 -15.8037 -15.8037 -15.8026 -15.8026 -15.8026 -15.8026
    -2.0404  -2.0404  -2.0404  -2.0404  -2.0271  -2.0271  -2.0271  -2.0271
    -0.5458  -0.5458  -0.5458  -0.5458  -0.5323  -0.5323  -0.5323  -0.5323
    -0.3615  -0.3615  -0.3615  -0.3615  -0.3016  -0.3016  -0.3016  -0.3016
     0.1121   0.1121   0.1121   0.1121   0.1255   0.1255   0.1255   0.1255
     0.1917   0.1917   0.1917   0.1917   0.1926   0.1926   0.1926   0.1926
     0.5051   0.5051   0.5051   0.5051   0.5496   0.5496   0.5496   0.5496
     3.8905   3.8905   3.8905   3.8905   3.8929   3.8929   3.8929   3.8929
     6.6863   6.6863   6.6863   6.6863   6.6985   6.6985   6.6985   6.6985
     7.0463   7.0463   7.0463   7.0463   7.0894   7.0894   7.0894   7.0894
     9.6121   9.6121   9.6121   9.6121   9.6623   9.6623   9.6623   9.6623
    11.0472  11.0472  11.0472  11.0472  11.0775  11.0775  11.0775  11.0775
    13.8878  13.8878  13.8878  13.8878  13.9278  13.9278  13.9278  13.9278
    14.3525  14.3525  14.3525  14.3525  14.3575  14.3575  14.3575  14.3575
    16.0222  16.0222  16.0222  16.0222

     Writing output data file /work/k0508/k050801/NaCdAs/rep/NaCdAs.save/
 
     init_run     :      0.38s CPU      0.40s WALL (       1 calls)
     electrons    :    192.54s CPU    193.88s WALL (       1 calls)

     Called by init_run:
     wfcinit      :      0.00s CPU      0.00s WALL (       1 calls)
     potinit      :      0.04s CPU      0.05s WALL (       1 calls)
     hinit0       :      0.29s CPU      0.30s WALL (       1 calls)

     Called by electrons:
     c_bands      :    192.54s CPU    193.88s WALL (       1 calls)
     v_of_rho     :      0.03s CPU      0.03s WALL (       1 calls)

     Called by c_bands:
     init_us_2    :      0.03s CPU      0.04s WALL (       8 calls)
     cegterg      :    184.88s CPU    185.94s WALL (      23 calls)

     Called by *egterg:
     cdiaghg      :     18.52s CPU     18.53s WALL (     383 calls)
     h_psi        :    105.73s CPU    106.84s WALL (     406 calls)
     g_psi        :      0.53s CPU      0.53s WALL (     375 calls)

     Called by h_psi:
     h_psi:calbec :     10.56s CPU     10.57s WALL (     406 calls)
     vloc_psi     :     82.78s CPU     83.84s WALL (     406 calls)
     add_vuspsi   :     11.69s CPU     11.71s WALL (     406 calls)

     General routines
     calbec       :     10.56s CPU     10.57s WALL (     406 calls)
     fft          :      0.02s CPU      0.03s WALL (      14 calls)
     fftw         :     71.85s CPU     72.78s WALL (  145328 calls)
     davcio       :      0.00s CPU      0.22s WALL (      16 calls)
 
     Parallel routines
     fft_scatt_xy :     11.84s CPU     12.00s WALL (  145342 calls)
     fft_scatt_yz :     20.07s CPU     20.32s WALL (  145342 calls)
 
     PWSCF        :   3m14.94s CPU   3m18.36s WALL

 
   This run was terminated on:   2:34: 3  28Nov2020            

=------------------------------------------------------------------------------=
   JOB DONE.
=------------------------------------------------------------------------------=
