mpijob CMD    : mpirun -f /tmp/mpiexec.params.k050801.110150
mpijob PARAMS : -d /home/k0508/k050801/qeirreps/ver_5/qeirreps/bilbao_sample/NaCdAs
        r1i5n0 10 omplace -nt 4 "/home/k0508/k050801/qe-6.6/bin/pw.x"

SGI MPT Placement option
--------------------------
omplace -nt 4

Node   MPI
------------
r1i5n0 10


     Program PWSCF v.6.6 starts on 28Nov2020 at  1:18: 8 

     This program is part of the open-source Quantum ESPRESSO suite
     for quantum simulation of materials; please cite
         "P. Giannozzi et al., J. Phys.:Condens. Matter 21 395502 (2009);
         "P. Giannozzi et al., J. Phys.:Condens. Matter 29 465901 (2017);
          URL http://www.quantum-espresso.org", 
     in publications or presentations arising from this work. More details at
     http://www.quantum-espresso.org/quote

     Parallel version (MPI), running on    10 processors

     MPI processes distributed on     1 nodes
     R & G space division:  proc/nbgrp/npool/nimage =      10
     Fft bands division:     nmany     =       1
     Waiting for input...
     Reading input from standard input

     Current dimensions of program PWSCF are:
     Max number of different atomic species (ntypx) = 10
     Max number of k-points (npk) =  40000
     Max angular momentum in pseudopotentials (lmaxx) =  3

     Subspace diagonalization in iterative solution of the eigenvalue problem:
     a serial algorithm will be used

     Message from routine setup:
     using ibrav=0 with symmetry is DISCOURAGED, use correct ibrav instead
 
     Parallelization info
     --------------------
     sticks:   dense  smooth     PW     G-vecs:    dense   smooth      PW
     Min         393     393    107                25773    25773    3703
     Max         394     394    108                25776    25776    3706
     Sum        3935    3935   1077               257753   257753   37043
 


     bravais-lattice index     =            0
     lattice parameter (alat)  =      14.4554  a.u.
     unit-cell volume          =    1907.9148 (a.u.)^3
     number of atoms/cell      =           12
     number of atomic types    =            3
     number of electrons       =       176.00
     number of Kohn-Sham states=          212
     kinetic-energy cutoff     =     100.0000  Ry
     charge density cutoff     =     400.0000  Ry
     convergence threshold     =      1.0E-08
     mixing beta               =       0.3000
     number of iterations used =            8  plain     mixing
     Exchange-correlation= PBE
                           (   1   4   3   4   0   0   0)
     Non magnetic calculation with spin-orbit


     celldm(1)=  14.455424  celldm(2)=   0.000000  celldm(3)=   0.000000
     celldm(4)=   0.000000  celldm(5)=   0.000000  celldm(6)=   0.000000

     crystal axes: (cart. coord. in units of alat)
               a(1) = (   1.000000   0.000000   0.000000 )  
               a(2) = (   0.000000   0.590742   0.000000 )  
               a(3) = (   0.000000   0.000000   1.069224 )  

     reciprocal axes: (cart. coord. in units 2 pi/alat)
               b(1) = (  1.000000  0.000000  0.000000 )  
               b(2) = (  0.000000  1.692787  0.000000 )  
               b(3) = (  0.000000  0.000000  0.935257 )  


     PseudoPot. # 1 for Na read from file:
     ../../pseudo/soc/Na.upf
     MD5 check sum: 5cc9e3e9635f0b9e0056521f6116a380
     Pseudo is Norm-conserving, Zval =  9.0
     Generated using ONCVPSP code by D. R. Hamann
     Using radial grid of 1992 points,  6 beta functions with: 
                l(1) =   0
                l(2) =   0
                l(3) =   1
                l(4) =   1
                l(5) =   1
                l(6) =   1

     PseudoPot. # 2 for Cd read from file:
     ../../pseudo/soc/Cd.upf
     MD5 check sum: fc9988adff5645b1bce1836ec33f834f
     Pseudo is Norm-conserving + core correction, Zval = 20.0
     Generated using ONCVPSP code by D. R. Hamann
     Using radial grid of 1368 points, 10 beta functions with: 
                l(1) =   0
                l(2) =   0
                l(3) =   1
                l(4) =   1
                l(5) =   1
                l(6) =   1
                l(7) =   2
                l(8) =   2
                l(9) =   2
               l(10) =   2

     PseudoPot. # 3 for As read from file:
     ../../pseudo/soc/As.upf
     MD5 check sum: 92566e412f0eca4e698ac3407aa21570
     Pseudo is Norm-conserving + core correction, Zval = 15.0
     Generated using ONCVPSP code by D. R. Hamann
     Using radial grid of 1358 points, 10 beta functions with: 
                l(1) =   0
                l(2) =   0
                l(3) =   1
                l(4) =   1
                l(5) =   1
                l(6) =   1
                l(7) =   2
                l(8) =   2
                l(9) =   2
               l(10) =   2

     atomic species   valence    mass     pseudopotential
        Na             9.00    22.98977     Na( 1.00)
        Cd            20.00   112.41100     Cd( 1.00)
        As            15.00    74.92160     As( 1.00)

      8 Sym. Ops., with inversion, found ( 6 have fractional translation)



   Cartesian axes

     site n.     atom                  positions (alat units)
         1           Na  tau(   1) = (   0.0184820   0.1476854   0.1854666  )
         2           Na  tau(   2) = (   0.9815180   0.4430562   0.8837578  )
         3           Na  tau(   3) = (   0.4815180   0.4430562   0.7200788  )
         4           Na  tau(   4) = (   0.5184820   0.1476854   0.3491456  )
         5           Cd  tau(   5) = (   0.1500210   0.1476854   0.6141764  )
         6           Cd  tau(   6) = (   0.8499790   0.4430562   0.4550480  )
         7           Cd  tau(   7) = (   0.3499790   0.4430562   0.0795642  )
         8           Cd  tau(   8) = (   0.6500210   0.1476854   0.9896602  )
         9           As  tau(   9) = (   0.2214520   0.4430562   0.4178369  )
        10           As  tau(  10) = (   0.7785480   0.1476854   0.6513876  )
        11           As  tau(  11) = (   0.2785480   0.1476854   0.9524491  )
        12           As  tau(  12) = (   0.7214520   0.4430562   0.1167753  )

     number of k points=   125  Methfessel-Paxton smearing, width (Ry)=  0.0100

     Number of k-points >= 100: set verbosity='high' to print them.

     Dense  grid:   257753 G-vectors     FFT dimensions: (  96,  60, 100)

     Estimated max dynamical RAM per process >       2.73 GB

     Estimated total dynamical RAM >      27.29 GB

     Initial potential from superposition of free atoms

     starting charge  175.97300, renormalised to  176.00000
     Starting wfcs are  192 randomized atomic wfcs +   20 random wfcs

     total cpu time spent up to now is       98.8 secs

     Self-consistent Calculation

     iteration #  1     ecut=   100.00 Ry     beta= 0.30
     Davidson diagonalization with overlap
     ethr =  1.00E-02,  avg # of iterations =  3.6

     Threshold (ethr) on eigenvalues was too large:
     Diagonalizing with lowered threshold

     Davidson diagonalization with overlap
     ethr =  3.01E-04,  avg # of iterations =  2.5

     total cpu time spent up to now is      766.5 secs

     total energy              =   -2616.77299748 Ry
     estimated scf accuracy    <       0.52460787 Ry

     iteration #  2     ecut=   100.00 Ry     beta= 0.30
     Davidson diagonalization with overlap
     ethr =  2.98E-04,  avg # of iterations =  2.4

     total cpu time spent up to now is     1088.9 secs

     total energy              =   -2616.81819600 Ry
     estimated scf accuracy    <       0.05492499 Ry

     iteration #  3     ecut=   100.00 Ry     beta= 0.30
     Davidson diagonalization with overlap
     ethr =  3.12E-05,  avg # of iterations =  8.3

     total cpu time spent up to now is     1478.7 secs

     total energy              =   -2616.82122447 Ry
     estimated scf accuracy    <       0.01131728 Ry

     iteration #  4     ecut=   100.00 Ry     beta= 0.30
     Davidson diagonalization with overlap
     ethr =  6.43E-06,  avg # of iterations =  4.3

     total cpu time spent up to now is     1806.2 secs

     total energy              =   -2616.82201327 Ry
     estimated scf accuracy    <       0.00090027 Ry

     iteration #  5     ecut=   100.00 Ry     beta= 0.30
     Davidson diagonalization with overlap
     c_bands:  1 eigenvalues not converged
     c_bands:  1 eigenvalues not converged
     ethr =  5.12E-07,  avg # of iterations =  5.2

     total cpu time spent up to now is     2170.5 secs

     total energy              =   -2616.82209802 Ry
     estimated scf accuracy    <       0.00013166 Ry

     iteration #  6     ecut=   100.00 Ry     beta= 0.30
     Davidson diagonalization with overlap
     ethr =  7.48E-08,  avg # of iterations =  2.1

     total cpu time spent up to now is     2479.9 secs

     total energy              =   -2616.82210539 Ry
     estimated scf accuracy    <       0.00001185 Ry

     iteration #  7     ecut=   100.00 Ry     beta= 0.30
     Davidson diagonalization with overlap
     ethr =  6.73E-09,  avg # of iterations =  3.0

     total cpu time spent up to now is     2824.9 secs

     total energy              =   -2616.82210807 Ry
     estimated scf accuracy    <       0.00000082 Ry

     iteration #  8     ecut=   100.00 Ry     beta= 0.30
     Davidson diagonalization with overlap
     ethr =  4.65E-10,  avg # of iterations =  3.4

     total cpu time spent up to now is     3197.4 secs

     total energy              =   -2616.82210831 Ry
     estimated scf accuracy    <       0.00000013 Ry

     iteration #  9     ecut=   100.00 Ry     beta= 0.30
     Davidson diagonalization with overlap
     ethr =  7.12E-11,  avg # of iterations =  2.6

     total cpu time spent up to now is     3559.5 secs

     total energy              =   -2616.82210833 Ry
     estimated scf accuracy    <       0.00000004 Ry

     iteration # 10     ecut=   100.00 Ry     beta= 0.30
     Davidson diagonalization with overlap
     ethr =  2.10E-11,  avg # of iterations =  2.0

     total cpu time spent up to now is     3903.8 secs

     End of self-consistent calculation

     Number of k-points >= 100: set verbosity='high' to print the bands.

     the Fermi energy is     8.4922 ev

!    total energy              =   -2616.82210834 Ry
     estimated scf accuracy    <          1.8E-09 Ry
     smearing contrib. (-TS)   =       0.00007491 Ry
     internal energy E=F+TS    =   -2616.82218325 Ry

     The total energy is F=E-TS. E is the sum of the following terms:
     one-electron contribution =   -1670.51412173 Ry
     hartree contribution      =     881.89795187 Ry
     xc contribution           =    -438.93333505 Ry
     ewald contribution        =   -1389.27267835 Ry

     convergence has been achieved in  10 iterations

     Forces acting on atoms (cartesian axes, Ry/au):

     atom    1 type  1   force =     0.00027221    0.00000000   -0.00014103
     atom    2 type  1   force =    -0.00027221   -0.00000000    0.00014103
     atom    3 type  1   force =    -0.00027221    0.00000000   -0.00014103
     atom    4 type  1   force =     0.00027221    0.00000000    0.00014103
     atom    5 type  2   force =    -0.00013783   -0.00000000   -0.00017257
     atom    6 type  2   force =     0.00013783   -0.00000000    0.00017257
     atom    7 type  2   force =     0.00013783    0.00000000   -0.00017257
     atom    8 type  2   force =    -0.00013783    0.00000000    0.00017257
     atom    9 type  3   force =    -0.00079333    0.00000000    0.00030062
     atom   10 type  3   force =     0.00079333    0.00000000   -0.00030062
     atom   11 type  3   force =     0.00079333    0.00000000    0.00030062
     atom   12 type  3   force =    -0.00079333    0.00000000   -0.00030062

     Total force =     0.001857     Total SCF correction =     0.000300
     SCF correction compared to forces is large: reduce conv_thr to get better values


     Computing stress (Cartesian axis) and pressure

          total   stress  (Ry/bohr**3)                   (kbar)     P=       -1.48
  -0.00001093   0.00000000   0.00000000           -1.61        0.00        0.00
   0.00000000  -0.00000862   0.00000000            0.00       -1.27        0.00
   0.00000000   0.00000000  -0.00001068            0.00        0.00       -1.57


     Writing output data file /work/k0508/k050801/NaCdAs/scf/NaCdAs.save/
 
     init_run     :     95.92s CPU     97.97s WALL (       1 calls)
     electrons    :   3780.52s CPU   3804.95s WALL (       1 calls)
     forces       :     53.97s CPU     53.82s WALL (       1 calls)
     stress       :    336.23s CPU    336.32s WALL (       1 calls)

     Called by init_run:
     wfcinit      :     95.29s CPU     97.30s WALL (       1 calls)
     potinit      :      0.25s CPU      0.27s WALL (       1 calls)
     hinit0       :      0.29s CPU      0.31s WALL (       1 calls)

     Called by electrons:
     c_bands      :   3366.54s CPU   3386.58s WALL (      11 calls)
     sum_band     :    413.49s CPU    417.77s WALL (      11 calls)
     v_of_rho     :      0.26s CPU      0.27s WALL (      11 calls)
     mix_rho      :      0.21s CPU      0.21s WALL (      11 calls)

     Called by c_bands:
     init_us_2    :     10.67s CPU     10.69s WALL (    3125 calls)
     cegterg      :   3100.55s CPU   3120.79s WALL (    1375 calls)

     Called by *egterg:
     cdiaghg      :    277.12s CPU    277.27s WALL (    6171 calls)
     h_psi        :   2008.44s CPU   2030.16s WALL (    6421 calls)
     g_psi        :      6.82s CPU      6.83s WALL (    4921 calls)

     Called by h_psi:
     h_psi:calbec :    200.07s CPU    200.19s WALL (    6421 calls)
     vloc_psi     :   1573.93s CPU   1594.22s WALL (    6421 calls)
     add_vuspsi   :    220.99s CPU    221.09s WALL (    6421 calls)

     General routines
     calbec       :    236.75s CPU    236.89s WALL (    7046 calls)
     fft          :      0.19s CPU      0.21s WALL (     168 calls)
     ffts         :      0.04s CPU      0.05s WALL (      44 calls)
     fftw         :   1661.37s CPU   1682.27s WALL ( 3385828 calls)
 
     Parallel routines
     fft_scatt_xy :    290.23s CPU    293.94s WALL ( 3386040 calls)
     fft_scatt_yz :    440.31s CPU    445.85s WALL ( 3386040 calls)
 
     PWSCF        :      1h11m CPU      1h12m WALL

 
   This run was terminated on:   2:30:18  28Nov2020            

=------------------------------------------------------------------------------=
   JOB DONE.
=------------------------------------------------------------------------------=
