mpijob CMD    : mpirun -f /tmp/mpiexec.params.k014709.12106
mpijob PARAMS : -d /home/k0147/k014709/research/dft/get_rep/program/example/Bi_nonsoc
        r1i0n0 24 omplace -nt 1
        "/home/k0147/k014709/research/dft/qe-6.2/bin/pw.x"

SGI MPT Placement option
--------------------------
omplace -nt 1

Node   MPI
------------
r1i0n0 24


     Program PWSCF v.6.2 (svn rev. 13949:13950) starts on 23Mar2020 at 17:50:21 

     This program is part of the open-source Quantum ESPRESSO suite
     for quantum simulation of materials; please cite
         "P. Giannozzi et al., J. Phys.:Condens. Matter 21 395502 (2009);
         "P. Giannozzi et al., J. Phys.:Condens. Matter 29 465901 (2017);
          URL http://www.quantum-espresso.org", 
     in publications or presentations arising from this work. More details at
     http://www.quantum-espresso.org/quote

     Parallel version (MPI), running on    24 processors

     MPI processes distributed on     1 nodes
     R & G space division:  proc/nbgrp/npool/nimage =      24
     Waiting for input...
     Reading input from standard input

     Current dimensions of program PWSCF are:
     Max number of different atomic species (ntypx) = 10
     Max number of k-points (npk) =  40000
     Max angular momentum in pseudopotentials (lmaxx) =  3

     Atomic positions and unit cell read from directory:
     /work/k0147/k014709/band/Bi_ns/Bi_ns.save/
 
     Message from routine readpp:
     file /work/k0147/k014709/band/Bi_ns/Bi_ns.save/Bi_ONCV_PBE_fr.upf not found

     Subspace diagonalization in iterative solution of the eigenvalue problem:
     a serial algorithm will be used

 
     Parallelization info
     --------------------
     sticks:   dense  smooth     PW     G-vecs:    dense   smooth      PW
     Min          91      91     25                 2787     2787     410
     Max          92      92     26                 2793     2793     413
     Sum        2197    2197    617                66925    66925    9883
 


     bravais-lattice index     =            0
     lattice parameter (alat)  =       9.0662  a.u.
     unit-cell volume          =     495.7043 (a.u.)^3
     number of atoms/cell      =            2
     number of atomic types    =            1
     number of electrons       =        30.00
     number of Kohn-Sham states=           19
     kinetic-energy cutoff     =     100.0000  Ry
     charge density cutoff     =     400.0000  Ry
     Exchange-correlation      = PBE ( 1  4  3  4 0 0)

     celldm(1)=   9.066241  celldm(2)=   0.000000  celldm(3)=   0.000000
     celldm(4)=   0.000000  celldm(5)=   0.000000  celldm(6)=   0.000000

     crystal axes: (cart. coord. in units of alat)
               a(1) = (   0.480401   0.277359   0.832038 )  
               a(2) = (  -0.480401   0.277359   0.832038 )  
               a(3) = (   0.000000  -0.554719   0.832038 )  

     reciprocal axes: (cart. coord. in units 2 pi/alat)
               b(1) = (  1.040798  0.600905  0.400623 )  
               b(2) = ( -1.040798  0.600905  0.400623 )  
               b(3) = (  0.000000 -1.201810  0.400623 )  


     PseudoPot. # 1 for Bi read from file:
     ~/research/dft/ONCVPSP-master/abinit/Bi_ONCV_PBE_fr.upf
     MD5 check sum: Not computed, couldn't open file
     Pseudo is Norm-conserving + core correction, Zval = 15.0
     Generated using ONCVPSP code by D. R. Hamann
     Using radial grid of 1562 points,  6 beta functions with: 
                l(1) =   0
                l(2) =   0
                l(3) =   1
                l(4) =   1
                l(5) =   2
                l(6) =   2

     atomic species   valence    mass     pseudopotential
        Bi            15.00   208.98040     Bi( 1.00)

     12 Sym. Ops., with inversion, found



   Cartesian axes

     site n.     atom                  positions (alat units)
         1           Bi  tau(   1) = (   0.0000000   0.0000000   0.6670014  )
         2           Bi  tau(   2) = (   0.4804007   0.2773595   0.1650364  )

     number of k points=   423  Methfessel-Paxton smearing, width (Ry)=  0.0100

     Number of k-points >= 100: set verbosity='high' to print them.

     Dense  grid:    66925 G-vectors     FFT dimensions: (  60,  60,  60)

     Estimated max dynamical RAM per process >       4.78 MB

     Estimated total dynamical RAM >     114.81 MB

     The potential is recalculated from file :
     /work/k0147/k014709/band/Bi_ns/Bi_ns.save/charge-density.dat

     Starting wfc are   18 randomized atomic wfcs +    1 random wfc

     Band Structure Calculation
     Davidson diagonalization with overlap

     ethr =  3.33E-11,  avg # of iterations = 16.9

     total cpu time spent up to now is       44.0 secs

     End of band structure calculation

     Number of k-points >= 100: set verbosity='high' to print the bands.

     Writing output data file Bi_ns.save
 
     init_run     :      0.14s CPU      0.16s WALL (       1 calls)
     electrons    :     42.11s CPU     43.53s WALL (       1 calls)

     Called by init_run:
     wfcinit      :      0.00s CPU      0.00s WALL (       1 calls)
     potinit      :      0.02s CPU      0.02s WALL (       1 calls)

     Called by electrons:
     c_bands      :     42.11s CPU     43.53s WALL (       1 calls)
     v_of_rho     :      0.00s CPU      0.01s WALL (       1 calls)

     Called by c_bands:
     init_us_2    :      0.06s CPU      0.06s WALL (     423 calls)
     cegterg      :     37.17s CPU     38.04s WALL (     432 calls)

     Called by sum_band:

     Called by *egterg:
     h_psi        :     29.61s CPU     30.34s WALL (    8003 calls)
     g_psi        :      0.14s CPU      0.20s WALL (    7148 calls)
     cdiaghg      :      7.13s CPU      7.42s WALL (    7571 calls)

     Called by h_psi:
     h_psi:pot    :     29.49s CPU     30.23s WALL (    8003 calls)
     h_psi:calbec :      0.58s CPU      0.65s WALL (    8003 calls)
     vloc_psi     :     28.47s CPU     29.15s WALL (    8003 calls)
     add_vuspsi   :      0.40s CPU      0.39s WALL (    8003 calls)

     General routines
     calbec       :      0.55s CPU      0.63s WALL (    8003 calls)
     fft          :      0.06s CPU      0.06s WALL (      11 calls)
     fftw         :     26.34s CPU     27.08s WALL (  162706 calls)
     davcio       :      0.13s CPU      0.30s WALL (     846 calls)
 
     Parallel routines
     fft_scatt_xy :      1.99s CPU      2.04s WALL (  162717 calls)
     fft_scatt_yz :     10.48s CPU     10.60s WALL (  162717 calls)
 
     PWSCF        :    48.61s CPU        53.72s WALL

 
   This run was terminated on:  17:51:15  23Mar2020            

=------------------------------------------------------------------------------=
   JOB DONE.
=------------------------------------------------------------------------------=
