mpijob CMD    : mpirun -f /tmp/mpiexec.params.k014709.12218
mpijob PARAMS : -d /home/k0147/k014709/research/dft/get_rep/program/example/Bi_nonsoc
        r1i0n0 24 omplace -nt 1
        "/home/k0147/k014709/research/dft/qe-6.2/bin/bands.x"

SGI MPT Placement option
--------------------------
omplace -nt 1

Node   MPI
------------
r1i0n0 24


     Program BANDS v.6.2 (svn rev. 13949:13950) starts on 23Mar2020 at 17:51:15 

     This program is part of the open-source Quantum ESPRESSO suite
     for quantum simulation of materials; please cite
         "P. Giannozzi et al., J. Phys.:Condens. Matter 21 395502 (2009);
         "P. Giannozzi et al., J. Phys.:Condens. Matter 29 465901 (2017);
          URL http://www.quantum-espresso.org", 
     in publications or presentations arising from this work. More details at
     http://www.quantum-espresso.org/quote

     Parallel version (MPI), running on    24 processors

     MPI processes distributed on     1 nodes
     R & G space division:  proc/nbgrp/npool/nimage =      24

     Reading data from directory:
     /work/k0147/k014709/band/Bi_ns/Bi_ns.save

     IMPORTANT: XC functional enforced from input :
     Exchange-correlation      = PBE ( 1  4  3  4 0 0)
     Any further DFT definition will be discarded
     Please, verify this is what you really want

     Message from routine readpp:
     file /work/k0147/k014709/band/Bi_ns/Bi_ns.save/Bi_ONCV_PBE_fr.upf not found
 
     Parallelization info
     --------------------
     sticks:   dense  smooth     PW     G-vecs:    dense   smooth      PW
     Min          91      91     25                 2787     2787     410
     Max          92      92     26                 2793     2793     413
     Sum        2197    2197    617                66925    66925    9883
 
     high-symmetry point:  0.0000 0.0000 0.0000   x coordinate   0.0000
     high-symmetry point:  0.0000 0.0000 0.6009   x coordinate   0.6009
     high-symmetry point:  0.5397 0.0000 0.6009   x coordinate   1.1406
     high-symmetry point:  0.7710-0.1335 0.2003   x coordinate   1.1406
     high-symmetry point:  0.5204 0.3005 0.2003   x coordinate   1.6417
     high-symmetry point:  0.0000 0.0000 0.0000   x coordinate   2.2751
     high-symmetry point:  0.7710 0.0000 0.0000   x coordinate   3.0461
     high-symmetry point:  0.6553-0.0668 0.4006   x coordinate   3.0461
     high-symmetry point:  0.5204-0.3005 0.4006   x coordinate   3.3159
     high-symmetry point:  0.0000 0.0000 0.0000   x coordinate   4.0382

     Plottable bands (eV) written to file Bi_ns.band.gnu
     Bands written to file Bi_ns.band

 **************************************************************************

                    xk=(   0.00000,   0.00000,   0.00000  )

     point group D_3d (-3m) 
     there are  6 classes
     the character table:

       E     2C3   3C2'  i     2S6   3s_d 
A_1g   1.00  1.00  1.00  1.00  1.00  1.00
A_2g   1.00  1.00 -1.00  1.00  1.00 -1.00
E_g    2.00 -1.00  0.00  2.00 -1.00  0.00
A_1u   1.00  1.00  1.00 -1.00 -1.00 -1.00
A_2u   1.00  1.00 -1.00 -1.00 -1.00  1.00
E_u    2.00 -1.00  0.00 -2.00  1.00  0.00

     the symmetry operations in each class and the name of the first element:

     E        1
                                                                 
     2C3      3    4
                                                                 
     3C2'     2    5    6
                                                                 
     i        7
                                                                 
     2S6      9   10
                                                                 
     3s_d     8   11   12
                                                                 

     Band symmetry, D_3d (-3m)  point group:

     e(  1 -  2) =    -13.48480  eV     2   --> E_g  L_3       
     e(  3 -  4) =    -13.35015  eV     2   --> E_u  L_3'      
     e(  5 -  5) =    -13.32973  eV     1   --> A_2u L_2'      
     e(  6 -  6) =    -13.18295  eV     1   --> A_1g L_1       
     e(  7 -  8) =    -13.17157  eV     2   --> E_g  L_3       
     e(  9 - 10) =    -13.05737  eV     2   --> E_u  L_3'      
     e( 11 - 11) =     -3.54274  eV     1   --> A_1g L_1       
     e( 12 - 12) =      1.72220  eV     1   --> A_2u L_2'      
     e( 13 - 13) =      7.83196  eV     1   --> A_1g L_1       
     e( 14 - 15) =      7.96702  eV     2   --> E_g  L_3       
     e( 16 - 16) =     11.50543  eV     1   --> A_2u L_2'      
     e( 17 - 18) =     12.00966  eV     2   --> E_u  L_3'      
     e( 19 - 19) =     14.99736  eV     1   --> A_2u L_2'      

 **************************************************************************

 **************************************************************************

                    xk=(   0.00000,   0.00000,   0.01002  )

     point group C_3v (3m)  
     there are  3 classes
     the character table:

       E     2C3   3s_v 
A_1    1.00  1.00  1.00
A_2    1.00  1.00 -1.00
E      2.00 -1.00  0.00

     the symmetry operations in each class and the name of the first element:

     E        1
                                                                 
     2C3      2    3
                                                                 
     3s_v     4    5    6
                                                                 

     Band symmetry, C_3v (3m)   point group:

     e(  1 -  2) =    -13.48476  eV     2   --> E    L_3       
     e(  3 -  4) =    -13.35014  eV     2   --> E    L_3       
     e(  5 -  5) =    -13.32971  eV     1   --> A_1  L_1       
     e(  6 -  6) =    -13.18297  eV     1   --> A_1  L_1       
     e(  7 -  8) =    -13.17159  eV     2   --> E    L_3       
     e(  9 - 10) =    -13.05741  eV     2   --> E    L_3       
     e( 11 - 11) =     -3.54225  eV     1   --> A_1  L_1       
     e( 12 - 12) =      1.72084  eV     1   --> A_1  L_1       
     e( 13 - 13) =      7.83239  eV     1   --> A_1  L_1       
     e( 14 - 15) =      7.96722  eV     2   --> E    L_3       
     e( 16 - 16) =     11.50384  eV     1   --> A_1  L_1       
     e( 17 - 18) =     12.00786  eV     2   --> E    L_3       
     e( 19 - 19) =     14.97721  eV     1   --> A_1  L_1       

 **************************************************************************

 **************************************************************************

                    xk=(   0.00000,   0.00000,   0.02003  )

     Band symmetry, C_3v (3m)   point group:

     e(  1 -  2) =    -13.48464  eV     2   --> E    L_3       
     e(  3 -  4) =    -13.35008  eV     2   --> E    L_3       
     e(  5 -  5) =    -13.32966  eV     1   --> A_1  L_1       
     e(  6 -  6) =    -13.18301  eV     1   --> A_1  L_1       
     e(  7 -  8) =    -13.17163  eV     2   --> E    L_3       
     e(  9 - 10) =    -13.05755  eV     2   --> E    L_3       
     e( 11 - 11) =     -3.54078  eV     1   --> A_1  L_1       
     e( 12 - 12) =      1.71677  eV     1   --> A_1  L_1       
     e( 13 - 13) =      7.83368  eV     1   --> A_1  L_1       
     e( 14 - 15) =      7.96783  eV     2   --> E    L_3       
     e( 16 - 16) =     11.49908  eV     1   --> A_1  L_1       
     e( 17 - 18) =     12.00247  eV     2   --> E    L_3       
     e( 19 - 19) =     14.93304  eV     1   --> A_1  L_1       

 **************************************************************************

 **************************************************************************

                    xk=(   0.00000,   0.00000,   0.03005  )

     Band symmetry, C_3v (3m)   point group:

     e(  1 -  2) =    -13.48443  eV     2   --> E    L_3       
     e(  3 -  4) =    -13.34999  eV     2   --> E    L_3       
     e(  5 -  5) =    -13.32957  eV     1   --> A_1  L_1       
     e(  6 -  6) =    -13.18309  eV     1   --> A_1  L_1       
     e(  7 -  8) =    -13.17170  eV     2   --> E    L_3       
     e(  9 - 10) =    -13.05778  eV     2   --> E    L_3       
     e( 11 - 11) =     -3.53832  eV     1   --> A_1  L_1       
     e( 12 - 12) =      1.70999  eV     1   --> A_1  L_1       
     e( 13 - 13) =      7.83581  eV     1   --> A_1  L_1       
     e( 14 - 15) =      7.96883  eV     2   --> E    L_3       
     e( 16 - 16) =     11.49119  eV     1   --> A_1  L_1       
     e( 17 - 18) =     11.99354  eV     2   --> E    L_3       
     e( 19 - 19) =     14.88144  eV     1   --> A_1  L_1       

 **************************************************************************

 **************************************************************************

                    xk=(   0.00000,   0.00000,   0.04006  )

     Band symmetry, C_3v (3m)   point group:

     e(  1 -  2) =    -13.48414  eV     2   --> E    L_3       
     e(  3 -  4) =    -13.34987  eV     2   --> E    L_3       
     e(  5 -  5) =    -13.32945  eV     1   --> A_1  L_1       
     e(  6 -  6) =    -13.18320  eV     1   --> A_1  L_1       
     e(  7 -  8) =    -13.17180  eV     2   --> E    L_3       
     e(  9 - 10) =    -13.05810  eV     2   --> E    L_3       
     e( 11 - 11) =     -3.53488  eV     1   --> A_1  L_1       
     e( 12 - 12) =      1.70053  eV     1   --> A_1  L_1       
     e( 13 - 13) =      7.83878  eV     1   --> A_1  L_1       
     e( 14 - 15) =      7.97023  eV     2   --> E    L_3       
     e( 16 - 16) =     11.48024  eV     1   --> A_1  L_1       
     e( 17 - 18) =     11.98111  eV     2   --> E    L_3       
     e( 19 - 19) =     14.82832  eV     1   --> A_1  L_1       

 **************************************************************************

 **************************************************************************

                    xk=(   0.00000,   0.00000,   0.05008  )

     Band symmetry, C_3v (3m)   point group:

     e(  1 -  2) =    -13.48377  eV     2   --> E    L_3       
     e(  3 -  4) =    -13.34971  eV     2   --> E    L_3       
     e(  5 -  5) =    -13.32929  eV     1   --> A_1  L_1       
     e(  6 -  6) =    -13.18334  eV     1   --> A_1  L_1       
     e(  7 -  8) =    -13.17193  eV     2   --> E    L_3       
     e(  9 - 10) =    -13.05851  eV     2   --> E    L_3       
     e( 11 - 11) =     -3.53046  eV     1   --> A_1  L_1       
     e( 12 - 12) =      1.68842  eV     1   --> A_1  L_1       
     e( 13 - 13) =      7.84255  eV     1   --> A_1  L_1       
     e( 14 - 15) =      7.97203  eV     2   --> E    L_3       
     e( 16 - 16) =     11.46634  eV     1   --> A_1  L_1       
     e( 17 - 18) =     11.96528  eV     2   --> E    L_3       
     e( 19 - 19) =     14.77583  eV     1   --> A_1  L_1       

 **************************************************************************

 **************************************************************************

                    xk=(   0.00000,   0.00000,   0.06009  )

     Band symmetry, C_3v (3m)   point group:

     e(  1 -  2) =    -13.48332  eV     2   --> E    L_3       
     e(  3 -  4) =    -13.34952  eV     2   --> E    L_3       
     e(  5 -  5) =    -13.32910  eV     1   --> A_1  L_1       
     e(  6 -  6) =    -13.18350  eV     1   --> A_1  L_1       
     e(  7 -  8) =    -13.17208  eV     2   --> E    L_3       
     e(  9 - 10) =    -13.05901  eV     2   --> E    L_3       
     e( 11 - 11) =     -3.52506  eV     1   --> A_1  L_1       
     e( 12 - 12) =      1.67370  eV     1   --> A_1  L_1       
     e( 13 - 13) =      7.84710  eV     1   --> A_1  L_1       
     e( 14 - 15) =      7.97424  eV     2   --> E    L_3       
     e( 16 - 16) =     11.44959  eV     1   --> A_1  L_1       
     e( 17 - 18) =     11.94615  eV     2   --> E    L_3       
     e( 19 - 19) =     14.72497  eV     1   --> A_1  L_1       

 **************************************************************************

 **************************************************************************

                    xk=(   0.00000,   0.00000,   0.07011  )

     Band symmetry, C_3v (3m)   point group:

     e(  1 -  2) =    -13.48279  eV     2   --> E    L_3       
     e(  3 -  4) =    -13.34929  eV     2   --> E    L_3       
     e(  5 -  5) =    -13.32888  eV     1   --> A_1  L_1       
     e(  6 -  6) =    -13.18370  eV     1   --> A_1  L_1       
     e(  7 -  8) =    -13.17226  eV     2   --> E    L_3       
     e(  9 - 10) =    -13.05960  eV     2   --> E    L_3       
     e( 11 - 11) =     -3.51870  eV     1   --> A_1  L_1       
     e( 12 - 12) =      1.65641  eV     1   --> A_1  L_1       
     e( 13 - 13) =      7.85239  eV     1   --> A_1  L_1       
     e( 14 - 15) =      7.97686  eV     2   --> E    L_3       
     e( 16 - 16) =     11.43013  eV     1   --> A_1  L_1       
     e( 17 - 18) =     11.92385  eV     2   --> E    L_3       
     e( 19 - 19) =     14.67632  eV     1   --> A_1  L_1       

 **************************************************************************

 **************************************************************************

                    xk=(   0.00000,   0.00000,   0.08012  )

     Band symmetry, C_3v (3m)   point group:

     e(  1 -  2) =    -13.48219  eV     2   --> E    L_3       
     e(  3 -  4) =    -13.34903  eV     2   --> E    L_3       
     e(  5 -  5) =    -13.32862  eV     1   --> A_1  L_1       
     e(  6 -  6) =    -13.18393  eV     1   --> A_1  L_1       
     e(  7 -  8) =    -13.17247  eV     2   --> E    L_3       
     e(  9 - 10) =    -13.06027  eV     2   --> E    L_3       
     e( 11 - 11) =     -3.51136  eV     1   --> A_1  L_1       
     e( 12 - 12) =      1.63661  eV     1   --> A_1  L_1       
     e( 13 - 13) =      7.85837  eV     1   --> A_1  L_1       
     e( 14 - 15) =      7.97988  eV     2   --> E    L_3       
     e( 16 - 16) =     11.40812  eV     1   --> A_1  L_1       
     e( 17 - 18) =     11.89850  eV     2   --> E    L_3       
     e( 19 - 19) =     14.63025  eV     1   --> A_1  L_1       

 **************************************************************************

 **************************************************************************

                    xk=(   0.00000,   0.00000,   0.09014  )

     Band symmetry, C_3v (3m)   point group:

     e(  1 -  2) =    -13.48150  eV     2   --> E    L_3       
     e(  3 -  4) =    -13.34873  eV     2   --> E    L_3       
     e(  5 -  5) =    -13.32834  eV     1   --> A_1  L_1       
     e(  6 -  6) =    -13.18419  eV     1   --> A_1  L_1       
     e(  7 -  8) =    -13.17271  eV     2   --> E    L_3       
     e(  9 - 10) =    -13.06104  eV     2   --> E    L_3       
     e( 11 - 11) =     -3.50305  eV     1   --> A_1  L_1       
     e( 12 - 12) =      1.61436  eV     1   --> A_1  L_1       
     e( 13 - 13) =      7.86500  eV     1   --> A_1  L_1       
     e( 14 - 15) =      7.98331  eV     2   --> E    L_3       
     e( 16 - 16) =     11.38372  eV     1   --> A_1  L_1       
     e( 17 - 18) =     11.87026  eV     2   --> E    L_3       
     e( 19 - 19) =     14.58704  eV     1   --> A_1  L_1       

 **************************************************************************

 **************************************************************************

                    xk=(   0.00000,   0.00000,   0.10016  )

     Band symmetry, C_3v (3m)   point group:

     e(  1 -  2) =    -13.48073  eV     2   --> E    L_3       
     e(  3 -  4) =    -13.34840  eV     2   --> E    L_3       
     e(  5 -  5) =    -13.32801  eV     1   --> A_1  L_1       
     e(  6 -  6) =    -13.18448  eV     1   --> A_1  L_1       
     e(  7 -  8) =    -13.17297  eV     2   --> E    L_3       
     e(  9 - 10) =    -13.06189  eV     2   --> E    L_3       
     e( 11 - 11) =     -3.49379  eV     1   --> A_1  L_1       
     e( 12 - 12) =      1.58972  eV     1   --> A_1  L_1       
     e( 13 - 13) =      7.87224  eV     1   --> A_1  L_1       
     e( 14 - 15) =      7.98716  eV     2   --> E    L_3       
     e( 16 - 16) =     11.35709  eV     1   --> A_1  L_1       
     e( 17 - 18) =     11.83929  eV     2   --> E    L_3       
     e( 19 - 19) =     14.54689  eV     1   --> A_1  L_1       

 **************************************************************************

 **************************************************************************

                    xk=(   0.00000,   0.00000,   0.11017  )

     Band symmetry, C_3v (3m)   point group:

     e(  1 -  2) =    -13.47989  eV     2   --> E    L_3       
     e(  3 -  4) =    -13.34804  eV     2   --> E    L_3       
     e(  5 -  5) =    -13.32766  eV     1   --> A_1  L_1       
     e(  6 -  6) =    -13.18479  eV     1   --> A_1  L_1       
     e(  7 -  8) =    -13.17326  eV     2   --> E    L_3       
     e(  9 - 10) =    -13.06282  eV     2   --> E    L_3       
     e( 11 - 11) =     -3.48357  eV     1   --> A_1  L_1       
     e( 12 - 12) =      1.56277  eV     1   --> A_1  L_1       
     e( 13 - 13) =      7.88002  eV     1   --> A_1  L_1       
     e( 14 - 15) =      7.99141  eV     2   --> E    L_3       
     e( 16 - 16) =     11.32841  eV     1   --> A_1  L_1       
     e( 17 - 18) =     11.80576  eV     2   --> E    L_3       
     e( 19 - 19) =     14.50999  eV     1   --> A_1  L_1       

 **************************************************************************

 **************************************************************************

                    xk=(   0.00000,   0.00000,   0.12019  )

     Band symmetry, C_3v (3m)   point group:

     e(  1 -  2) =    -13.47897  eV     2   --> E    L_3       
     e(  3 -  4) =    -13.34765  eV     2   --> E    L_3       
     e(  5 -  5) =    -13.32727  eV     1   --> A_1  L_1       
     e(  6 -  6) =    -13.18514  eV     1   --> A_1  L_1       
     e(  7 -  8) =    -13.17357  eV     2   --> E    L_3       
     e(  9 - 10) =    -13.06384  eV     2   --> E    L_3       
     e( 11 - 11) =     -3.47241  eV     1   --> A_1  L_1       
     e( 12 - 12) =      1.53359  eV     1   --> A_1  L_1       
     e( 13 - 13) =      7.88829  eV     1   --> A_1  L_1       
     e( 14 - 15) =      7.99609  eV     2   --> E    L_3       
     e( 16 - 16) =     11.29785  eV     1   --> A_1  L_1       
     e( 17 - 18) =     11.76985  eV     2   --> E    L_3       
     e( 19 - 19) =     14.47646  eV     1   --> A_1  L_1       

 **************************************************************************

 **************************************************************************

                    xk=(   0.00000,   0.00000,   0.13020  )

     Band symmetry, C_3v (3m)   point group:

     e(  1 -  2) =    -13.47798  eV     2   --> E    L_3       
     e(  3 -  4) =    -13.34723  eV     2   --> E    L_3       
     e(  5 -  5) =    -13.32685  eV     1   --> A_1  L_1       
     e(  6 -  6) =    -13.18551  eV     1   --> A_1  L_1       
     e(  7 -  8) =    -13.17391  eV     2   --> E    L_3       
     e(  9 - 10) =    -13.06494  eV     2   --> E    L_3       
     e( 11 - 11) =     -3.46030  eV     1   --> A_1  L_1       
     e( 12 - 12) =      1.50225  eV     1   --> A_1  L_1       
     e( 13 - 13) =      7.89700  eV     1   --> A_1  L_1       
     e( 14 - 15) =      8.00118  eV     2   --> E    L_3       
     e( 16 - 16) =     11.26560  eV     1   --> A_1  L_1       
     e( 17 - 18) =     11.73173  eV     2   --> E    L_3       
     e( 19 - 19) =     14.44643  eV     1   --> A_1  L_1       

 **************************************************************************

 **************************************************************************

                    xk=(   0.00000,   0.00000,   0.14022  )

     Band symmetry, C_3v (3m)   point group:

     e(  1 -  2) =    -13.47692  eV     2   --> E    L_3       
     e(  3 -  4) =    -13.34678  eV     2   --> E    L_3       
     e(  5 -  5) =    -13.32641  eV     1   --> A_1  L_1       
     e(  6 -  6) =    -13.18592  eV     1   --> A_1  L_1       
     e(  7 -  8) =    -13.17427  eV     2   --> E    L_3       
     e(  9 - 10) =    -13.06612  eV     2   --> E    L_3       
     e( 11 - 11) =     -3.44727  eV     1   --> A_1  L_1       
     e( 12 - 12) =      1.46885  eV     1   --> A_1  L_1       
     e( 13 - 13) =      7.90608  eV     1   --> A_1  L_1       
     e( 14 - 15) =      8.00669  eV     2   --> E    L_3       
     e( 16 - 16) =     11.23181  eV     1   --> A_1  L_1       
     e( 17 - 18) =     11.69158  eV     2   --> E    L_3       
     e( 19 - 19) =     14.41999  eV     1   --> A_1  L_1       

 **************************************************************************

 **************************************************************************

                    xk=(   0.00000,   0.00000,   0.15023  )

     Band symmetry, C_3v (3m)   point group:

     e(  1 -  2) =    -13.47579  eV     2   --> E    L_3       
     e(  3 -  4) =    -13.34629  eV     2   --> E    L_3       
     e(  5 -  5) =    -13.32593  eV     1   --> A_1  L_1       
     e(  6 -  6) =    -13.18634  eV     1   --> A_1  L_1       
     e(  7 -  8) =    -13.17465  eV     2   --> E    L_3       
     e(  9 - 10) =    -13.06738  eV     2   --> E    L_3       
     e( 11 - 11) =     -3.43330  eV     1   --> A_1  L_1       
     e( 12 - 12) =      1.43347  eV     1   --> A_1  L_1       
     e( 13 - 13) =      7.91548  eV     1   --> A_1  L_1       
     e( 14 - 15) =      8.01263  eV     2   --> E    L_3       
     e( 16 - 16) =     11.19666  eV     1   --> A_1  L_1       
     e( 17 - 18) =     11.64957  eV     2   --> E    L_3       
     e( 19 - 19) =     14.39722  eV     1   --> A_1  L_1       

 **************************************************************************

 **************************************************************************

                    xk=(   0.00000,   0.00000,   0.16025  )

     Band symmetry, C_3v (3m)   point group:

     e(  1 -  2) =    -13.47459  eV     2   --> E    L_3       
     e(  3 -  4) =    -13.34579  eV     2   --> E    L_3       
     e(  5 -  5) =    -13.32542  eV     1   --> A_1  L_1       
     e(  6 -  6) =    -13.18680  eV     1   --> A_1  L_1       
     e(  7 -  8) =    -13.17506  eV     2   --> E    L_3       
     e(  9 - 10) =    -13.06871  eV     2   --> E    L_3       
     e( 11 - 11) =     -3.41843  eV     1   --> A_1  L_1       
     e( 12 - 12) =      1.39621  eV     1   --> A_1  L_1       
     e( 13 - 13) =      7.92515  eV     1   --> A_1  L_1       
     e( 14 - 15) =      8.01899  eV     2   --> E    L_3       
     e( 16 - 16) =     11.16031  eV     1   --> A_1  L_1       
     e( 17 - 18) =     11.60587  eV     2   --> E    L_3       
     e( 19 - 19) =     14.37818  eV     1   --> A_1  L_1       

 **************************************************************************

 **************************************************************************

                    xk=(   0.00000,   0.00000,   0.17026  )

     Band symmetry, C_3v (3m)   point group:

     e(  1 -  2) =    -13.47332  eV     2   --> E    L_3       
     e(  3 -  4) =    -13.34525  eV     2   --> E    L_3       
     e(  5 -  5) =    -13.32488  eV     1   --> A_1  L_1       
     e(  6 -  6) =    -13.18728  eV     1   --> A_1  L_1       
     e(  7 -  8) =    -13.17549  eV     2   --> E    L_3       
     e(  9 - 10) =    -13.07011  eV     2   --> E    L_3       
     e( 11 - 11) =     -3.40265  eV     1   --> A_1  L_1       
     e( 12 - 12) =      1.35716  eV     1   --> A_1  L_1       
     e( 13 - 13) =      7.93501  eV     1   --> A_1  L_1       
     e( 14 - 15) =      8.02578  eV     2   --> E    L_3       
     e( 16 - 16) =     11.12292  eV     1   --> A_1  L_1       
     e( 17 - 18) =     11.56067  eV     2   --> E    L_3       
     e( 19 - 19) =     14.36292  eV     1   --> A_1  L_1       

 **************************************************************************

 **************************************************************************

                    xk=(   0.00000,   0.00000,   0.18028  )

     Band symmetry, C_3v (3m)   point group:

     e(  1 -  2) =    -13.47199  eV     2   --> E    L_3       
     e(  3 -  4) =    -13.34469  eV     2   --> E    L_3       
     e(  5 -  5) =    -13.32432  eV     1   --> A_1  L_1       
     e(  6 -  6) =    -13.18779  eV     1   --> A_1  L_1       
     e(  7 -  8) =    -13.17594  eV     2   --> E    L_3       
     e(  9 - 10) =    -13.07159  eV     2   --> E    L_3       
     e( 11 - 11) =     -3.38598  eV     1   --> A_1  L_1       
     e( 12 - 12) =      1.31642  eV     1   --> A_1  L_1       
     e( 13 - 13) =      7.94503  eV     1   --> A_1  L_1       
     e( 14 - 15) =      8.03301  eV     2   --> E    L_3       
     e( 16 - 16) =     11.08463  eV     1   --> A_1  L_1       
     e( 17 - 18) =     11.51412  eV     2   --> E    L_3       
     e( 19 - 19) =     14.35147  eV     1   --> A_1  L_1       

 **************************************************************************

 **************************************************************************

                    xk=(   0.00000,   0.00000,   0.19030  )

     Band symmetry, C_3v (3m)   point group:

     e(  1 -  2) =    -13.47059  eV     2   --> E    L_3       
     e(  3 -  4) =    -13.34410  eV     2   --> E    L_3       
     e(  5 -  5) =    -13.32373  eV     1   --> A_1  L_1       
     e(  6 -  6) =    -13.18832  eV     1   --> A_1  L_1       
     e(  7 -  8) =    -13.17641  eV     2   --> E    L_3       
     e(  9 - 10) =    -13.07313  eV     2   --> E    L_3       
     e( 11 - 11) =     -3.36844  eV     1   --> A_1  L_1       
     e( 12 - 12) =      1.27410  eV     1   --> A_1  L_1       
     e( 13 - 13) =      7.95514  eV     1   --> A_1  L_1       
     e( 14 - 15) =      8.04066  eV     2   --> E    L_3       
     e( 16 - 16) =     11.04559  eV     1   --> A_1  L_1       
     e( 17 - 18) =     11.46638  eV     2   --> E    L_3       
     e( 19 - 19) =     14.34386  eV     1   --> A_1  L_1       

 **************************************************************************

 **************************************************************************

                    xk=(   0.00000,   0.00000,   0.20031  )

     Band symmetry, C_3v (3m)   point group:

     e(  1 -  2) =    -13.46914  eV     2   --> E    L_3       
     e(  3 -  4) =    -13.34349  eV     2   --> E    L_3       
     e(  5 -  5) =    -13.32311  eV     1   --> A_1  L_1       
     e(  6 -  6) =    -13.18887  eV     1   --> A_1  L_1       
     e(  7 -  8) =    -13.17689  eV     2   --> E    L_3       
     e(  9 - 10) =    -13.07474  eV     2   --> E    L_3       
     e( 11 - 11) =     -3.35003  eV     1   --> A_1  L_1       
     e( 12 - 12) =      1.23028  eV     1   --> A_1  L_1       
     e( 13 - 13) =      7.96530  eV     1   --> A_1  L_1       
     e( 14 - 15) =      8.04875  eV     2   --> E    L_3       
     e( 16 - 16) =     11.00594  eV     1   --> A_1  L_1       
     e( 17 - 18) =     11.41761  eV     2   --> E    L_3       
     e( 19 - 19) =     14.34011  eV     1   --> A_1  L_1       

 **************************************************************************

 **************************************************************************

                    xk=(   0.00000,   0.00000,   0.21033  )

     Band symmetry, C_3v (3m)   point group:

     e(  1 -  2) =    -13.46763  eV     2   --> E    L_3       
     e(  3 -  4) =    -13.34286  eV     2   --> E    L_3       
     e(  5 -  5) =    -13.32247  eV     1   --> A_1  L_1       
     e(  6 -  6) =    -13.18945  eV     1   --> A_1  L_1       
     e(  7 -  8) =    -13.17740  eV     2   --> E    L_3       
     e(  9 - 10) =    -13.07642  eV     2   --> E    L_3       
     e( 11 - 11) =     -3.33077  eV     1   --> A_1  L_1       
     e( 12 - 12) =      1.18508  eV     1   --> A_1  L_1       
     e( 13 - 13) =      7.97546  eV     1   --> A_1  L_1       
     e( 14 - 15) =      8.05726  eV     2   --> E    L_3       
     e( 16 - 16) =     10.96580  eV     1   --> A_1  L_1       
     e( 17 - 18) =     11.36795  eV     2   --> E    L_3       
     e( 19 - 19) =     14.34020  eV     1   --> A_1  L_1       

 **************************************************************************

 **************************************************************************

                    xk=(   0.00000,   0.00000,   0.22034  )

     Band symmetry, C_3v (3m)   point group:

     e(  1 -  2) =    -13.46606  eV     2   --> E    L_3       
     e(  3 -  4) =    -13.34221  eV     2   --> E    L_3       
     e(  5 -  5) =    -13.32181  eV     1   --> A_1  L_1       
     e(  6 -  6) =    -13.19005  eV     1   --> A_1  L_1       
     e(  7 -  8) =    -13.17792  eV     2   --> E    L_3       
     e(  9 - 10) =    -13.07815  eV     2   --> E    L_3       
     e( 11 - 11) =     -3.31068  eV     1   --> A_1  L_1       
     e( 12 - 12) =      1.13859  eV     1   --> A_1  L_1       
     e( 13 - 13) =      7.98558  eV     1   --> A_1  L_1       
     e( 14 - 15) =      8.06622  eV     2   --> E    L_3       
     e( 16 - 16) =     10.92529  eV     1   --> A_1  L_1       
     e( 17 - 18) =     11.31754  eV     2   --> E    L_3       
     e( 19 - 19) =     14.34414  eV     1   --> A_1  L_1       

 **************************************************************************

 **************************************************************************

                    xk=(   0.00000,   0.00000,   0.23036  )

     Band symmetry, C_3v (3m)   point group:

     e(  1 -  2) =    -13.46444  eV     2   --> E    L_3       
     e(  3 -  4) =    -13.34154  eV     2   --> E    L_3       
     e(  5 -  5) =    -13.32112  eV     1   --> A_1  L_1       
     e(  6 -  6) =    -13.19067  eV     1   --> A_1  L_1       
     e(  7 -  8) =    -13.17845  eV     2   --> E    L_3       
     e(  9 - 10) =    -13.07994  eV     2   --> E    L_3       
     e( 11 - 11) =     -3.28977  eV     1   --> A_1  L_1       
     e( 12 - 12) =      1.09092  eV     1   --> A_1  L_1       
     e( 13 - 13) =      7.99562  eV     1   --> A_1  L_1       
     e( 14 - 15) =      8.07560  eV     2   --> E    L_3       
     e( 16 - 16) =     10.88455  eV     1   --> A_1  L_1       
     e( 17 - 18) =     11.26652  eV     2   --> E    L_3       
     e( 19 - 19) =     14.35191  eV     1   --> A_1  L_1       

 **************************************************************************

 **************************************************************************

                    xk=(   0.00000,   0.00000,   0.24037  )

     Band symmetry, C_3v (3m)   point group:

     e(  1 -  2) =    -13.46278  eV     2   --> E    L_3       
     e(  3 -  4) =    -13.34085  eV     2   --> E    L_3       
     e(  5 -  5) =    -13.32041  eV     1   --> A_1  L_1       
     e(  6 -  6) =    -13.19131  eV     1   --> A_1  L_1       
     e(  7 -  8) =    -13.17900  eV     2   --> E    L_3       
     e(  9 - 10) =    -13.08178  eV     2   --> E    L_3       
     e( 11 - 11) =     -3.26808  eV     1   --> A_1  L_1       
     e( 12 - 12) =      1.04217  eV     1   --> A_1  L_1       
     e( 13 - 13) =      8.00554  eV     1   --> A_1  L_1       
     e( 14 - 15) =      8.08542  eV     2   --> E    L_3       
     e( 16 - 16) =     10.84367  eV     1   --> A_1  L_1       
     e( 17 - 18) =     11.21502  eV     2   --> E    L_3       
     e( 19 - 19) =     14.36347  eV     1   --> A_1  L_1       

 **************************************************************************

 **************************************************************************

                    xk=(   0.00000,   0.00000,   0.25039  )

     Band symmetry, C_3v (3m)   point group:

     e(  1 -  2) =    -13.46106  eV     2   --> E    L_3       
     e(  3 -  4) =    -13.34015  eV     2   --> E    L_3       
     e(  5 -  5) =    -13.31968  eV     1   --> A_1  L_1       
     e(  6 -  6) =    -13.19197  eV     1   --> A_1  L_1       
     e(  7 -  8) =    -13.17956  eV     2   --> E    L_3       
     e(  9 - 10) =    -13.08367  eV     2   --> E    L_3       
     e( 11 - 11) =     -3.24561  eV     1   --> A_1  L_1       
     e( 12 - 12) =      0.99244  eV     1   --> A_1  L_1       
     e( 13 - 13) =      8.01531  eV     1   --> A_1  L_1       
     e( 14 - 15) =      8.09567  eV     2   --> E    L_3       
     e( 16 - 16) =     10.80276  eV     1   --> A_1  L_1       
     e( 17 - 18) =     11.16315  eV     2   --> E    L_3       
     e( 19 - 19) =     14.37879  eV     1   --> A_1  L_1       

 **************************************************************************

 **************************************************************************

                    xk=(   0.00000,   0.00000,   0.26040  )

     Band symmetry, C_3v (3m)   point group:

     e(  1 -  2) =    -13.45931  eV     2   --> E    L_3       
     e(  3 -  4) =    -13.33943  eV     2   --> E    L_3       
     e(  5 -  5) =    -13.31894  eV     1   --> A_1  L_1       
     e(  6 -  6) =    -13.19265  eV     1   --> A_1  L_1       
     e(  7 -  8) =    -13.18013  eV     2   --> E    L_3       
     e(  9 - 10) =    -13.08561  eV     2   --> E    L_3       
     e( 11 - 11) =     -3.22239  eV     1   --> A_1  L_1       
     e( 12 - 12) =      0.94184  eV     1   --> A_1  L_1       
     e( 13 - 13) =      8.02491  eV     1   --> A_1  L_1       
     e( 14 - 15) =      8.10634  eV     2   --> E    L_3       
     e( 16 - 16) =     10.76193  eV     1   --> A_1  L_1       
     e( 17 - 18) =     11.11104  eV     2   --> E    L_3       
     e( 19 - 19) =     14.39781  eV     1   --> A_1  L_1       

 **************************************************************************

 **************************************************************************

                    xk=(   0.00000,   0.00000,   0.27042  )

     Band symmetry, C_3v (3m)   point group:

     e(  1 -  2) =    -13.45752  eV     2   --> E    L_3       
     e(  3 -  4) =    -13.33870  eV     2   --> E    L_3       
     e(  5 -  5) =    -13.31817  eV     1   --> A_1  L_1       
     e(  6 -  6) =    -13.19335  eV     1   --> A_1  L_1       
     e(  7 -  8) =    -13.18071  eV     2   --> E    L_3       
     e(  9 - 10) =    -13.08759  eV     2   --> E    L_3       
     e( 11 - 11) =     -3.19844  eV     1   --> A_1  L_1       
     e( 12 - 12) =      0.89048  eV     1   --> A_1  L_1       
     e( 13 - 13) =      8.03430  eV     1   --> A_1  L_1       
     e( 14 - 15) =      8.11744  eV     2   --> E    L_3       
     e( 16 - 16) =     10.72127  eV     1   --> A_1  L_1       
     e( 17 - 18) =     11.05880  eV     2   --> E    L_3       
     e( 19 - 19) =     14.42050  eV     1   --> A_1  L_1       

 **************************************************************************

 **************************************************************************

                    xk=(   0.00000,   0.00000,   0.28044  )

     Band symmetry, C_3v (3m)   point group:

     e(  1 -  2) =    -13.45569  eV     2   --> E    L_3       
     e(  3 -  4) =    -13.33796  eV     2   --> E    L_3       
     e(  5 -  5) =    -13.31739  eV     1   --> A_1  L_1       
     e(  6 -  6) =    -13.19406  eV     1   --> A_1  L_1       
     e(  7 -  8) =    -13.18130  eV     2   --> E    L_3       
     e(  9 - 10) =    -13.08961  eV     2   --> E    L_3       
     e( 11 - 11) =     -3.17381  eV     1   --> A_1  L_1       
     e( 12 - 12) =      0.83845  eV     1   --> A_1  L_1       
     e( 13 - 13) =      8.04348  eV     1   --> A_1  L_1       
     e( 14 - 15) =      8.12895  eV     2   --> E    L_3       
     e( 16 - 16) =     10.68087  eV     1   --> A_1  L_1       
     e( 17 - 18) =     11.00653  eV     2   --> E    L_3       
     e( 19 - 19) =     14.44678  eV     1   --> A_1  L_1       

 **************************************************************************

 **************************************************************************

                    xk=(   0.00000,   0.00000,   0.29045  )

     Band symmetry, C_3v (3m)   point group:

     e(  1 -  2) =    -13.45383  eV     2   --> E    L_3       
     e(  3 -  4) =    -13.33721  eV     2   --> E    L_3       
     e(  5 -  5) =    -13.31660  eV     1   --> A_1  L_1       
     e(  6 -  6) =    -13.19478  eV     1   --> A_1  L_1       
     e(  7 -  8) =    -13.18189  eV     2   --> E    L_3       
     e(  9 - 10) =    -13.09166  eV     2   --> E    L_3       
     e( 11 - 11) =     -3.14850  eV     1   --> A_1  L_1       
     e( 12 - 12) =      0.78586  eV     1   --> A_1  L_1       
     e( 13 - 13) =      8.05242  eV     1   --> A_1  L_1       
     e( 14 - 15) =      8.14086  eV     2   --> E    L_3       
     e( 16 - 16) =     10.64082  eV     1   --> A_1  L_1       
     e( 17 - 18) =     10.95433  eV     2   --> E    L_3       
     e( 19 - 19) =     14.47658  eV     1   --> A_1  L_1       

 **************************************************************************

 **************************************************************************

                    xk=(   0.00000,   0.00000,   0.30047  )

     Band symmetry, C_3v (3m)   point group:

     e(  1 -  2) =    -13.45194  eV     2   --> E    L_3       
     e(  3 -  4) =    -13.33646  eV     2   --> E    L_3       
     e(  5 -  5) =    -13.31579  eV     1   --> A_1  L_1       
     e(  6 -  6) =    -13.19552  eV     1   --> A_1  L_1       
     e(  7 -  8) =    -13.18249  eV     2   --> E    L_3       
     e(  9 - 10) =    -13.09374  eV     2   --> E    L_3       
     e( 11 - 11) =     -3.12257  eV     1   --> A_1  L_1       
     e( 12 - 12) =      0.73282  eV     1   --> A_1  L_1       
     e( 13 - 13) =      8.06110  eV     1   --> A_1  L_1       
     e( 14 - 15) =      8.15318  eV     2   --> E    L_3       
     e( 16 - 16) =     10.60120  eV     1   --> A_1  L_1       
     e( 17 - 18) =     10.90230  eV     2   --> E    L_3       
     e( 19 - 19) =     14.50983  eV     1   --> A_1  L_1       

 **************************************************************************

 **************************************************************************

                    xk=(   0.00000,   0.00000,   0.31048  )

     Band symmetry, C_3v (3m)   point group:

     e(  1 -  2) =    -13.45004  eV     2   --> E    L_3       
     e(  3 -  4) =    -13.33570  eV     2   --> E    L_3       
     e(  5 -  5) =    -13.31497  eV     1   --> A_1  L_1       
     e(  6 -  6) =    -13.19626  eV     1   --> A_1  L_1       
     e(  7 -  8) =    -13.18309  eV     2   --> E    L_3       
     e(  9 - 10) =    -13.09584  eV     2   --> E    L_3       
     e( 11 - 11) =     -3.09603  eV     1   --> A_1  L_1       
     e( 12 - 12) =      0.67942  eV     1   --> A_1  L_1       
     e( 13 - 13) =      8.06953  eV     1   --> A_1  L_1       
     e( 14 - 15) =      8.16588  eV     2   --> E    L_3       
     e( 16 - 16) =     10.56210  eV     1   --> A_1  L_1       
     e( 17 - 18) =     10.85054  eV     2   --> E    L_3       
     e( 19 - 19) =     14.54644  eV     1   --> A_1  L_1       

 **************************************************************************

 **************************************************************************

                    xk=(   0.00000,   0.00000,   0.32050  )

     Band symmetry, C_3v (3m)   point group:

     e(  1 -  2) =    -13.44811  eV     2   --> E    L_3       
     e(  3 -  4) =    -13.33494  eV     2   --> E    L_3       
     e(  5 -  5) =    -13.31414  eV     1   --> A_1  L_1       
     e(  6 -  6) =    -13.19702  eV     1   --> A_1  L_1       
     e(  7 -  8) =    -13.18369  eV     2   --> E    L_3       
     e(  9 - 10) =    -13.09797  eV     2   --> E    L_3       
     e( 11 - 11) =     -3.06894  eV     1   --> A_1  L_1       
     e( 12 - 12) =      0.62579  eV     1   --> A_1  L_1       
     e( 13 - 13) =      8.07768  eV     1   --> A_1  L_1       
     e( 14 - 15) =      8.17896  eV     2   --> E    L_3       
     e( 16 - 16) =     10.52358  eV     1   --> A_1  L_1       
     e( 17 - 18) =     10.79913  eV     2   --> E    L_3       
     e( 19 - 19) =     14.58631  eV     1   --> A_1  L_1       

 **************************************************************************

 **************************************************************************

                    xk=(   0.00000,   0.00000,   0.33051  )

     Band symmetry, C_3v (3m)   point group:

     e(  1 -  2) =    -13.44617  eV     2   --> E    L_3       
     e(  3 -  4) =    -13.33418  eV     2   --> E    L_3       
     e(  5 -  5) =    -13.31331  eV     1   --> A_1  L_1       
     e(  6 -  6) =    -13.19778  eV     1   --> A_1  L_1       
     e(  7 -  8) =    -13.18429  eV     2   --> E    L_3       
     e(  9 - 10) =    -13.10011  eV     2   --> E    L_3       
     e( 11 - 11) =     -3.04134  eV     1   --> A_1  L_1       
     e( 12 - 12) =      0.57201  eV     1   --> A_1  L_1       
     e( 13 - 13) =      8.08556  eV     1   --> A_1  L_1       
     e( 14 - 15) =      8.19240  eV     2   --> E    L_3       
     e( 16 - 16) =     10.48573  eV     1   --> A_1  L_1       
     e( 17 - 18) =     10.74816  eV     2   --> E    L_3       
     e( 19 - 19) =     14.62936  eV     1   --> A_1  L_1       

 **************************************************************************

 **************************************************************************

                    xk=(   0.00000,   0.00000,   0.34053  )

     Band symmetry, C_3v (3m)   point group:

     e(  1 -  2) =    -13.44423  eV     2   --> E    L_3       
     e(  3 -  4) =    -13.33342  eV     2   --> E    L_3       
     e(  5 -  5) =    -13.31247  eV     1   --> A_1  L_1       
     e(  6 -  6) =    -13.19855  eV     1   --> A_1  L_1       
     e(  7 -  8) =    -13.18489  eV     2   --> E    L_3       
     e(  9 - 10) =    -13.10226  eV     2   --> E    L_3       
     e( 11 - 11) =     -3.01327  eV     1   --> A_1  L_1       
     e( 12 - 12) =      0.51821  eV     1   --> A_1  L_1       
     e( 13 - 13) =      8.09316  eV     1   --> A_1  L_1       
     e( 14 - 15) =      8.20617  eV     2   --> E    L_3       
     e( 16 - 16) =     10.44860  eV     1   --> A_1  L_1       
     e( 17 - 18) =     10.69773  eV     2   --> E    L_3       
     e( 19 - 19) =     14.67546  eV     1   --> A_1  L_1       

 **************************************************************************

 **************************************************************************

                    xk=(   0.00000,   0.00000,   0.35054  )

     Band symmetry, C_3v (3m)   point group:

     e(  1 -  2) =    -13.44227  eV     2   --> E    L_3       
     e(  3 -  4) =    -13.33267  eV     2   --> E    L_3       
     e(  5 -  5) =    -13.31163  eV     1   --> A_1  L_1       
     e(  6 -  6) =    -13.19933  eV     1   --> A_1  L_1       
     e(  7 -  8) =    -13.18548  eV     2   --> E    L_3       
     e(  9 - 10) =    -13.10441  eV     2   --> E    L_3       
     e( 11 - 11) =     -2.98478  eV     1   --> A_1  L_1       
     e( 12 - 12) =      0.46450  eV     1   --> A_1  L_1       
     e( 13 - 13) =      8.10048  eV     1   --> A_1  L_1       
     e( 14 - 15) =      8.22027  eV     2   --> E    L_3       
     e( 16 - 16) =     10.41228  eV     1   --> A_1  L_1       
     e( 17 - 18) =     10.64790  eV     2   --> E    L_3       
     e( 19 - 19) =     14.72451  eV     1   --> A_1  L_1       

 **************************************************************************

 **************************************************************************

                    xk=(   0.00000,   0.00000,   0.36056  )

     Band symmetry, C_3v (3m)   point group:

     e(  1 -  2) =    -13.44033  eV     2   --> E    L_3       
     e(  3 -  4) =    -13.33192  eV     2   --> E    L_3       
     e(  5 -  5) =    -13.31079  eV     1   --> A_1  L_1       
     e(  6 -  6) =    -13.20010  eV     1   --> A_1  L_1       
     e(  7 -  8) =    -13.18606  eV     2   --> E    L_3       
     e(  9 - 10) =    -13.10656  eV     2   --> E    L_3       
     e( 11 - 11) =     -2.95594  eV     1   --> A_1  L_1       
     e( 12 - 12) =      0.41097  eV     1   --> A_1  L_1       
     e( 13 - 13) =      8.10751  eV     1   --> A_1  L_1       
     e( 14 - 15) =      8.23466  eV     2   --> E    L_3       
     e( 16 - 16) =     10.37681  eV     1   --> A_1  L_1       
     e( 17 - 18) =     10.59878  eV     2   --> E    L_3       
     e( 19 - 19) =     14.77638  eV     1   --> A_1  L_1       

 **************************************************************************

 **************************************************************************

                    xk=(   0.00000,   0.00000,   0.37058  )

     Band symmetry, C_3v (3m)   point group:

     e(  1 -  2) =    -13.43839  eV     2   --> E    L_3       
     e(  3 -  4) =    -13.33118  eV     2   --> E    L_3       
     e(  5 -  5) =    -13.30995  eV     1   --> A_1  L_1       
     e(  6 -  6) =    -13.20088  eV     1   --> A_1  L_1       
     e(  7 -  8) =    -13.18663  eV     2   --> E    L_3       
     e(  9 - 10) =    -13.10870  eV     2   --> E    L_3       
     e( 11 - 11) =     -2.92680  eV     1   --> A_1  L_1       
     e( 12 - 12) =      0.35777  eV     1   --> A_1  L_1       
     e( 13 - 13) =      8.11427  eV     1   --> A_1  L_1       
     e( 14 - 15) =      8.24931  eV     2   --> E    L_3       
     e( 16 - 16) =     10.34228  eV     1   --> A_1  L_1       
     e( 17 - 18) =     10.55044  eV     2   --> E    L_3       
     e( 19 - 19) =     14.83093  eV     1   --> A_1  L_1       

 **************************************************************************

 **************************************************************************

                    xk=(   0.00000,   0.00000,   0.38059  )

     Band symmetry, C_3v (3m)   point group:

     e(  1 -  2) =    -13.43646  eV     2   --> E    L_3       
     e(  3 -  4) =    -13.33045  eV     2   --> E    L_3       
     e(  5 -  5) =    -13.30911  eV     1   --> A_1  L_1       
     e(  6 -  6) =    -13.20165  eV     1   --> A_1  L_1       
     e(  7 -  8) =    -13.18719  eV     2   --> E    L_3       
     e(  9 - 10) =    -13.11083  eV     2   --> E    L_3       
     e( 11 - 11) =     -2.89742  eV     1   --> A_1  L_1       
     e( 12 - 12) =      0.30499  eV     1   --> A_1  L_1       
     e( 13 - 13) =      8.12074  eV     1   --> A_1  L_1       
     e( 14 - 15) =      8.26420  eV     2   --> E    L_3       
     e( 16 - 16) =     10.30872  eV     1   --> A_1  L_1       
     e( 17 - 18) =     10.50296  eV     2   --> E    L_3       
     e( 19 - 19) =     14.88803  eV     1   --> A_1  L_1       

 **************************************************************************

 **************************************************************************

                    xk=(   0.00000,   0.00000,   0.39061  )

     Band symmetry, C_3v (3m)   point group:

     e(  1 -  2) =    -13.43455  eV     2   --> E    L_3       
     e(  3 -  4) =    -13.32974  eV     2   --> E    L_3       
     e(  5 -  5) =    -13.30828  eV     1   --> A_1  L_1       
     e(  6 -  6) =    -13.20241  eV     1   --> A_1  L_1       
     e(  7 -  8) =    -13.18774  eV     2   --> E    L_3       
     e(  9 - 10) =    -13.11294  eV     2   --> E    L_3       
     e( 11 - 11) =     -2.86790  eV     1   --> A_1  L_1       
     e( 12 - 12) =      0.25277  eV     1   --> A_1  L_1       
     e( 13 - 13) =      8.12694  eV     1   --> A_1  L_1       
     e( 14 - 15) =      8.27929  eV     2   --> E    L_3       
     e( 16 - 16) =     10.27621  eV     1   --> A_1  L_1       
     e( 17 - 18) =     10.45643  eV     2   --> E    L_3       
     e( 19 - 19) =     14.94752  eV     1   --> A_1  L_1       

 **************************************************************************

 **************************************************************************

                    xk=(   0.00000,   0.00000,   0.40062  )

     Band symmetry, C_3v (3m)   point group:

     e(  1 -  2) =    -13.43267  eV     2   --> E    L_3       
     e(  3 -  4) =    -13.32904  eV     2   --> E    L_3       
     e(  5 -  5) =    -13.30746  eV     1   --> A_1  L_1       
     e(  6 -  6) =    -13.20317  eV     1   --> A_1  L_1       
     e(  7 -  8) =    -13.18827  eV     2   --> E    L_3       
     e(  9 - 10) =    -13.11502  eV     2   --> E    L_3       
     e( 11 - 11) =     -2.83830  eV     1   --> A_1  L_1       
     e( 12 - 12) =      0.20123  eV     1   --> A_1  L_1       
     e( 13 - 13) =      8.13286  eV     1   --> A_1  L_1       
     e( 14 - 15) =      8.29453  eV     2   --> E    L_3       
     e( 16 - 16) =     10.24480  eV     1   --> A_1  L_1       
     e( 17 - 18) =     10.41095  eV     2   --> E    L_3       
     e( 19 - 19) =     15.00923  eV     1   --> A_1  L_1       

 **************************************************************************

 **************************************************************************

                    xk=(   0.00000,   0.00000,   0.41064  )

     Band symmetry, C_3v (3m)   point group:

     e(  1 -  2) =    -13.43082  eV     2   --> E    L_3       
     e(  3 -  4) =    -13.32837  eV     2   --> E    L_3       
     e(  5 -  5) =    -13.30665  eV     1   --> A_1  L_1       
     e(  6 -  6) =    -13.20392  eV     1   --> A_1  L_1       
     e(  7 -  8) =    -13.18878  eV     2   --> E    L_3       
     e(  9 - 10) =    -13.11706  eV     2   --> E    L_3       
     e( 11 - 11) =     -2.80871  eV     1   --> A_1  L_1       
     e( 12 - 12) =      0.15050  eV     1   --> A_1  L_1       
     e( 13 - 13) =      8.13850  eV     1   --> A_1  L_1       
     e( 14 - 15) =      8.30988  eV     2   --> E    L_3       
     e( 16 - 16) =     10.21454  eV     1   --> A_1  L_1       
     e( 17 - 18) =     10.36659  eV     2   --> E    L_3       
     e( 19 - 19) =     15.07297  eV     1   --> A_1  L_1       

 **************************************************************************

 **************************************************************************

                    xk=(   0.00000,   0.00000,   0.42065  )

     Band symmetry, C_3v (3m)   point group:

     e(  1 -  2) =    -13.42901  eV     2   --> E    L_3       
     e(  3 -  4) =    -13.32771  eV     2   --> E    L_3       
     e(  5 -  5) =    -13.30586  eV     1   --> A_1  L_1       
     e(  6 -  6) =    -13.20465  eV     1   --> A_1  L_1       
     e(  7 -  8) =    -13.18928  eV     2   --> E    L_3       
     e(  9 - 10) =    -13.11907  eV     2   --> E    L_3       
     e( 11 - 11) =     -2.77924  eV     1   --> A_1  L_1       
     e( 12 - 12) =      0.10074  eV     1   --> A_1  L_1       
     e( 13 - 13) =      8.14388  eV     1   --> A_1  L_1       
     e( 14 - 15) =      8.32528  eV     2   --> E    L_3       
     e( 16 - 16) =     10.18548  eV     1   --> A_1  L_1       
     e( 17 - 18) =     10.32344  eV     2   --> E    L_3       
     e( 19 - 19) =     15.13854  eV     1   --> A_1  L_1       

 **************************************************************************

 **************************************************************************

                    xk=(   0.00000,   0.00000,   0.43067  )

     Band symmetry, C_3v (3m)   point group:

     e(  1 -  2) =    -13.42724  eV     2   --> E    L_3       
     e(  3 -  4) =    -13.32707  eV     2   --> E    L_3       
     e(  5 -  5) =    -13.30509  eV     1   --> A_1  L_1       
     e(  6 -  6) =    -13.20537  eV     1   --> A_1  L_1       
     e(  7 -  8) =    -13.18975  eV     2   --> E    L_3       
     e(  9 - 10) =    -13.12103  eV     2   --> E    L_3       
     e( 11 - 11) =     -2.74999  eV     1   --> A_1  L_1       
     e( 12 - 12) =      0.05207  eV     1   --> A_1  L_1       
     e( 13 - 13) =      8.14898  eV     1   --> A_1  L_1       
     e( 14 - 15) =      8.34068  eV     2   --> E    L_3       
     e( 16 - 16) =     10.15768  eV     1   --> A_1  L_1       
     e( 17 - 18) =     10.28162  eV     2   --> E    L_3       
     e( 19 - 19) =     15.20572  eV     1   --> A_1  L_1       

 **************************************************************************

 **************************************************************************

                    xk=(   0.00000,   0.00000,   0.44069  )

     Band symmetry, C_3v (3m)   point group:

     e(  1 -  2) =    -13.42553  eV     2   --> E    L_3       
     e(  3 -  4) =    -13.32646  eV     2   --> E    L_3       
     e(  5 -  5) =    -13.30433  eV     1   --> A_1  L_1       
     e(  6 -  6) =    -13.20607  eV     1   --> A_1  L_1       
     e(  7 -  8) =    -13.19020  eV     2   --> E    L_3       
     e(  9 - 10) =    -13.12294  eV     2   --> E    L_3       
     e( 11 - 11) =     -2.72108  eV     1   --> A_1  L_1       
     e( 12 - 12) =      0.00466  eV     1   --> A_1  L_1       
     e( 13 - 13) =      8.15381  eV     1   --> A_1  L_1       
     e( 14 - 15) =      8.35601  eV     2   --> E    L_3       
     e( 16 - 16) =     10.13118  eV     1   --> A_1  L_1       
     e( 17 - 18) =     10.24120  eV     2   --> E    L_3       
     e( 19 - 19) =     15.27425  eV     1   --> A_1  L_1       

 **************************************************************************

 **************************************************************************

                    xk=(   0.00000,   0.00000,   0.45070  )

     Band symmetry, C_3v (3m)   point group:

     e(  1 -  2) =    -13.42387  eV     2   --> E    L_3       
     e(  3 -  4) =    -13.32588  eV     2   --> E    L_3       
     e(  5 -  5) =    -13.30360  eV     1   --> A_1  L_1       
     e(  6 -  6) =    -13.20675  eV     1   --> A_1  L_1       
     e(  7 -  8) =    -13.19062  eV     2   --> E    L_3       
     e(  9 - 10) =    -13.12478  eV     2   --> E    L_3       
     e( 11 - 11) =     -2.69263  eV     1   --> A_1  L_1       
     e( 12 - 12) =     -0.04133  eV     1   --> A_1  L_1       
     e( 13 - 13) =      8.15836  eV     1   --> A_1  L_1       
     e( 14 - 15) =      8.37120  eV     2   --> E    L_3       
     e( 16 - 16) =     10.10602  eV     1   --> A_1  L_1       
     e( 17 - 18) =     10.20231  eV     2   --> E    L_3       
     e( 19 - 19) =     15.34385  eV     1   --> A_1  L_1       

 **************************************************************************

 **************************************************************************

                    xk=(   0.00000,   0.00000,   0.46072  )

     Band symmetry, C_3v (3m)   point group:

     e(  1 -  2) =    -13.42228  eV     2   --> E    L_3       
     e(  3 -  4) =    -13.32533  eV     2   --> E    L_3       
     e(  5 -  5) =    -13.30290  eV     1   --> A_1  L_1       
     e(  6 -  6) =    -13.20740  eV     1   --> A_1  L_1       
     e(  7 -  8) =    -13.19102  eV     2   --> E    L_3       
     e(  9 - 10) =    -13.12655  eV     2   --> E    L_3       
     e( 11 - 11) =     -2.66479  eV     1   --> A_1  L_1       
     e( 12 - 12) =     -0.08574  eV     1   --> A_1  L_1       
     e( 13 - 13) =      8.16265  eV     1   --> A_1  L_1       
     e( 14 - 15) =      8.38616  eV     2   --> E    L_3       
     e( 16 - 16) =     10.08226  eV     1   --> A_1  L_1       
     e( 17 - 18) =     10.16504  eV     2   --> E    L_3       
     e( 19 - 19) =     15.41420  eV     1   --> A_1  L_1       

 **************************************************************************

 **************************************************************************

                    xk=(   0.00000,   0.00000,   0.47073  )

     Band symmetry, C_3v (3m)   point group:

     e(  1 -  2) =    -13.42076  eV     2   --> E    L_3       
     e(  3 -  4) =    -13.32481  eV     2   --> E    L_3       
     e(  5 -  5) =    -13.30223  eV     1   --> A_1  L_1       
     e(  6 -  6) =    -13.20803  eV     1   --> A_1  L_1       
     e(  7 -  8) =    -13.19139  eV     2   --> E    L_3       
     e(  9 - 10) =    -13.12825  eV     2   --> E    L_3       
     e( 11 - 11) =     -2.63770  eV     1   --> A_1  L_1       
     e( 12 - 12) =     -0.12837  eV     1   --> A_1  L_1       
     e( 13 - 13) =      8.16666  eV     1   --> A_1  L_1       
     e( 14 - 15) =      8.40081  eV     2   --> E    L_3       
     e( 16 - 16) =     10.05993  eV     1   --> A_1  L_1       
     e( 17 - 18) =     10.12951  eV     2   --> E    L_3       
     e( 19 - 19) =     15.48491  eV     1   --> A_1  L_1       

 **************************************************************************

 **************************************************************************

                    xk=(   0.00000,   0.00000,   0.48075  )

     Band symmetry, C_3v (3m)   point group:

     e(  1 -  2) =    -13.41932  eV     2   --> E    L_3       
     e(  3 -  4) =    -13.32431  eV     2   --> E    L_3       
     e(  5 -  5) =    -13.30159  eV     1   --> A_1  L_1       
     e(  6 -  6) =    -13.20863  eV     1   --> A_1  L_1       
     e(  7 -  8) =    -13.19174  eV     2   --> E    L_3       
     e(  9 - 10) =    -13.12986  eV     2   --> E    L_3       
     e( 11 - 11) =     -2.61152  eV     1   --> A_1  L_1       
     e( 12 - 12) =     -0.16905  eV     1   --> A_1  L_1       
     e( 13 - 13) =      8.17040  eV     1   --> A_1  L_1       
     e( 14 - 15) =      8.41505  eV     2   --> E    L_3       
     e( 16 - 16) =     10.03908  eV     1   --> A_1  L_1       
     e( 17 - 18) =     10.09585  eV     2   --> E    L_3       
     e( 19 - 19) =     15.55558  eV     1   --> A_1  L_1       

 **************************************************************************

 **************************************************************************

                    xk=(   0.00000,   0.00000,   0.49076  )

     Band symmetry, C_3v (3m)   point group:

     e(  1 -  2) =    -13.41797  eV     2   --> E    L_3       
     e(  3 -  4) =    -13.32386  eV     2   --> E    L_3       
     e(  5 -  5) =    -13.30099  eV     1   --> A_1  L_1       
     e(  6 -  6) =    -13.20919  eV     1   --> A_1  L_1       
     e(  7 -  8) =    -13.19205  eV     2   --> E    L_3       
     e(  9 - 10) =    -13.13137  eV     2   --> E    L_3       
     e( 11 - 11) =     -2.58643  eV     1   --> A_1  L_1       
     e( 12 - 12) =     -0.20758  eV     1   --> A_1  L_1       
     e( 13 - 13) =      8.17386  eV     1   --> A_1  L_1       
     e( 14 - 15) =      8.42878  eV     2   --> E    L_3       
     e( 16 - 16) =     10.01974  eV     1   --> A_1  L_1       
     e( 17 - 18) =     10.06417  eV     2   --> E    L_3       
     e( 19 - 19) =     15.62569  eV     1   --> A_1  L_1       

 **************************************************************************

 **************************************************************************

                    xk=(   0.00000,   0.00000,   0.50078  )

     Band symmetry, C_3v (3m)   point group:

     e(  1 -  2) =    -13.41670  eV     2   --> E    L_3       
     e(  3 -  4) =    -13.32344  eV     2   --> E    L_3       
     e(  5 -  5) =    -13.30043  eV     1   --> A_1  L_1       
     e(  6 -  6) =    -13.20972  eV     1   --> A_1  L_1       
     e(  7 -  8) =    -13.19234  eV     2   --> E    L_3       
     e(  9 - 10) =    -13.13279  eV     2   --> E    L_3       
     e( 11 - 11) =     -2.56260  eV     1   --> A_1  L_1       
     e( 12 - 12) =     -0.24376  eV     1   --> A_1  L_1       
     e( 13 - 13) =      8.17704  eV     1   --> A_1  L_1       
     e( 14 - 15) =      8.44189  eV     2   --> E    L_3       
     e( 16 - 16) =     10.00195  eV     1   --> A_1  L_1       
     e( 17 - 18) =     10.03461  eV     2   --> E    L_3       
     e( 19 - 19) =     15.69467  eV     1   --> A_1  L_1       

 **************************************************************************

 **************************************************************************

                    xk=(   0.00000,   0.00000,   0.51079  )

     Band symmetry, C_3v (3m)   point group:

     e(  1 -  2) =    -13.41554  eV     2   --> E    L_3       
     e(  3 -  4) =    -13.32305  eV     2   --> E    L_3       
     e(  5 -  5) =    -13.29991  eV     1   --> A_1  L_1       
     e(  6 -  6) =    -13.21020  eV     1   --> A_1  L_1       
     e(  7 -  8) =    -13.19260  eV     2   --> E    L_3       
     e(  9 - 10) =    -13.13410  eV     2   --> E    L_3       
     e( 11 - 11) =     -2.54022  eV     1   --> A_1  L_1       
     e( 12 - 12) =     -0.27736  eV     1   --> A_1  L_1       
     e( 13 - 13) =      8.17994  eV     1   --> A_1  L_1       
     e( 14 - 15) =      8.45427  eV     2   --> E    L_3       
     e( 16 - 16) =      9.98575  eV     1   --> A_1  L_1       
     e( 17 - 18) =     10.00730  eV     2   --> E    L_3       
     e( 19 - 19) =     15.76184  eV     1   --> A_1  L_1       

 **************************************************************************

 **************************************************************************

                    xk=(   0.00000,   0.00000,   0.52081  )

     Band symmetry, C_3v (3m)   point group:

     e(  1 -  2) =    -13.41448  eV     2   --> E    L_3       
     e(  3 -  4) =    -13.32271  eV     2   --> E    L_3       
     e(  5 -  5) =    -13.29943  eV     1   --> A_1  L_1       
     e(  6 -  6) =    -13.21064  eV     1   --> A_1  L_1       
     e(  7 -  8) =    -13.19283  eV     2   --> E    L_3       
     e(  9 - 10) =    -13.13529  eV     2   --> E    L_3       
     e( 11 - 11) =     -2.51949  eV     1   --> A_1  L_1       
     e( 12 - 12) =     -0.30820  eV     1   --> A_1  L_1       
     e( 13 - 13) =      8.18254  eV     1   --> A_1  L_1       
     e( 14 - 15) =      8.46578  eV     2   --> E    L_3       
     e( 16 - 16) =      9.97116  eV     1   --> A_1  L_1       
     e( 17 - 18) =      9.98238  eV     2   --> E    L_3       
     e( 19 - 19) =     15.82643  eV     1   --> A_1  L_1       

 **************************************************************************

 **************************************************************************

                    xk=(   0.00000,   0.00000,   0.53083  )

     Band symmetry, C_3v (3m)   point group:

     e(  1 -  2) =    -13.41353  eV     2   --> E    L_3       
     e(  3 -  4) =    -13.32240  eV     2   --> E    L_3       
     e(  5 -  5) =    -13.29901  eV     1   --> A_1  L_1       
     e(  6 -  6) =    -13.21104  eV     1   --> A_1  L_1       
     e(  7 -  8) =    -13.19303  eV     2   --> E    L_3       
     e(  9 - 10) =    -13.13637  eV     2   --> E    L_3       
     e( 11 - 11) =     -2.50060  eV     1   --> A_1  L_1       
     e( 12 - 12) =     -0.33604  eV     1   --> A_1  L_1       
     e( 13 - 13) =      8.18485  eV     1   --> A_1  L_1       
     e( 14 - 15) =      8.47631  eV     2   --> E    L_3       
     e( 16 - 16) =      9.95822  eV     1   --> A_1  L_1       
     e( 17 - 18) =      9.95998  eV     2   --> E    L_3       
     e( 19 - 19) =     15.88754  eV     1   --> A_1  L_1       

 **************************************************************************

 **************************************************************************

                    xk=(   0.00000,   0.00000,   0.54084  )

     Band symmetry, C_3v (3m)   point group:

     e(  1 -  2) =    -13.41269  eV     2   --> E    L_3       
     e(  3 -  4) =    -13.32213  eV     2   --> E    L_3       
     e(  5 -  5) =    -13.29864  eV     1   --> A_1  L_1       
     e(  6 -  6) =    -13.21139  eV     1   --> A_1  L_1       
     e(  7 -  8) =    -13.19320  eV     2   --> E    L_3       
     e(  9 - 10) =    -13.13731  eV     2   --> E    L_3       
     e( 11 - 11) =     -2.48374  eV     1   --> A_1  L_1       
     e( 12 - 12) =     -0.36068  eV     1   --> A_1  L_1       
     e( 13 - 13) =      8.18687  eV     1   --> A_1  L_1       
     e( 14 - 15) =      8.48575  eV     2   --> E    L_3       
     e( 16 - 17) =      9.94024  eV     2   --> E    L_3       
     e( 18 - 18) =      9.94695  eV     1   --> A_1  L_1       
     e( 19 - 19) =     15.94412  eV     1   --> A_1  L_1       

 **************************************************************************

 **************************************************************************

                    xk=(   0.00000,   0.00000,   0.55086  )

     Band symmetry, C_3v (3m)   point group:

     e(  1 -  2) =    -13.41198  eV     2   --> E    L_3       
     e(  3 -  4) =    -13.32190  eV     2   --> E    L_3       
     e(  5 -  5) =    -13.29831  eV     1   --> A_1  L_1       
     e(  6 -  6) =    -13.21170  eV     1   --> A_1  L_1       
     e(  7 -  8) =    -13.19334  eV     2   --> E    L_3       
     e(  9 - 10) =    -13.13812  eV     2   --> E    L_3       
     e( 11 - 11) =     -2.46911  eV     1   --> A_1  L_1       
     e( 12 - 12) =     -0.38193  eV     1   --> A_1  L_1       
     e( 13 - 13) =      8.18858  eV     1   --> A_1  L_1       
     e( 14 - 15) =      8.49397  eV     2   --> E    L_3       
     e( 16 - 17) =      9.92328  eV     2   --> E    L_3       
     e( 18 - 18) =      9.93737  eV     1   --> A_1  L_1       
     e( 19 - 19) =     15.99505  eV     1   --> A_1  L_1       

 **************************************************************************

 **************************************************************************

                    xk=(   0.00000,   0.00000,   0.56087  )

     Band symmetry, C_3v (3m)   point group:

     e(  1 -  2) =    -13.41139  eV     2   --> E    L_3       
     e(  3 -  4) =    -13.32172  eV     2   --> E    L_3       
     e(  5 -  5) =    -13.29805  eV     1   --> A_1  L_1       
     e(  6 -  6) =    -13.21194  eV     1   --> A_1  L_1       
     e(  7 -  8) =    -13.19346  eV     2   --> E    L_3       
     e(  9 - 10) =    -13.13879  eV     2   --> E    L_3       
     e( 11 - 11) =     -2.45687  eV     1   --> A_1  L_1       
     e( 12 - 12) =     -0.39959  eV     1   --> A_1  L_1       
     e( 13 - 13) =      8.18999  eV     1   --> A_1  L_1       
     e( 14 - 15) =      8.50086  eV     2   --> E    L_3       
     e( 16 - 17) =      9.90923  eV     2   --> E    L_3       
     e( 18 - 18) =      9.92951  eV     1   --> A_1  L_1       
     e( 19 - 19) =     16.03911  eV     1   --> A_1  L_1       

 **************************************************************************

 **************************************************************************

                    xk=(   0.00000,   0.00000,   0.57089  )

     Band symmetry, C_3v (3m)   point group:

     e(  1 -  2) =    -13.41092  eV     2   --> E    L_3       
     e(  3 -  4) =    -13.32157  eV     2   --> E    L_3       
     e(  5 -  5) =    -13.29784  eV     1   --> A_1  L_1       
     e(  6 -  6) =    -13.21214  eV     1   --> A_1  L_1       
     e(  7 -  8) =    -13.19355  eV     2   --> E    L_3       
     e(  9 - 10) =    -13.13932  eV     2   --> E    L_3       
     e( 11 - 11) =     -2.44717  eV     1   --> A_1  L_1       
     e( 12 - 12) =     -0.41352  eV     1   --> A_1  L_1       
     e( 13 - 13) =      8.19108  eV     1   --> A_1  L_1       
     e( 14 - 15) =      8.50633  eV     2   --> E    L_3       
     e( 16 - 17) =      9.89818  eV     2   --> E    L_3       
     e( 18 - 18) =      9.92338  eV     1   --> A_1  L_1       
     e( 19 - 19) =     16.07506  eV     1   --> A_1  L_1       

 **************************************************************************

 **************************************************************************

                    xk=(   0.00000,   0.00000,   0.58090  )

     Band symmetry, C_3v (3m)   point group:

     e(  1 -  2) =    -13.41059  eV     2   --> E    L_3       
     e(  3 -  4) =    -13.32147  eV     2   --> E    L_3       
     e(  5 -  5) =    -13.29769  eV     1   --> A_1  L_1       
     e(  6 -  6) =    -13.21228  eV     1   --> A_1  L_1       
     e(  7 -  8) =    -13.19361  eV     2   --> E    L_3       
     e(  9 - 10) =    -13.13969  eV     2   --> E    L_3       
     e( 11 - 11) =     -2.44015  eV     1   --> A_1  L_1       
     e( 12 - 12) =     -0.42356  eV     1   --> A_1  L_1       
     e( 13 - 13) =      8.19187  eV     1   --> A_1  L_1       
     e( 14 - 15) =      8.51030  eV     2   --> E    L_3       
     e( 16 - 17) =      9.89022  eV     2   --> E    L_3       
     e( 18 - 18) =      9.91899  eV     1   --> A_1  L_1       
     e( 19 - 19) =     16.10173  eV     1   --> A_1  L_1       

 **************************************************************************

 **************************************************************************

                    xk=(   0.00000,   0.00000,   0.59092  )

     Band symmetry, C_3v (3m)   point group:

     e(  1 -  2) =    -13.41039  eV     2   --> E    L_3       
     e(  3 -  4) =    -13.32140  eV     2   --> E    L_3       
     e(  5 -  5) =    -13.29760  eV     1   --> A_1  L_1       
     e(  6 -  6) =    -13.21237  eV     1   --> A_1  L_1       
     e(  7 -  8) =    -13.19365  eV     2   --> E    L_3       
     e(  9 - 10) =    -13.13992  eV     2   --> E    L_3       
     e( 11 - 11) =     -2.43590  eV     1   --> A_1  L_1       
     e( 12 - 12) =     -0.42963  eV     1   --> A_1  L_1       
     e( 13 - 13) =      8.19234  eV     1   --> A_1  L_1       
     e( 14 - 15) =      8.51271  eV     2   --> E    L_3       
     e( 16 - 17) =      9.88542  eV     2   --> E    L_3       
     e( 18 - 18) =      9.91635  eV     1   --> A_1  L_1       
     e( 19 - 19) =     16.11817  eV     1   --> A_1  L_1       

 **************************************************************************

 **************************************************************************

                    xk=(   0.00000,   0.00000,   0.60093  )

     point group D_3d (-3m) 
     there are  6 classes
     the character table:

       E     2C3   3C2'  i     2S6   3s_d 
A_1g   1.00  1.00  1.00  1.00  1.00  1.00
A_2g   1.00  1.00 -1.00  1.00  1.00 -1.00
E_g    2.00 -1.00  0.00  2.00 -1.00  0.00
A_1u   1.00  1.00  1.00 -1.00 -1.00 -1.00
A_2u   1.00  1.00 -1.00 -1.00 -1.00  1.00
E_u    2.00 -1.00  0.00 -2.00  1.00  0.00

     the symmetry operations in each class and the name of the first element:

     E        1
                                                                 
     2C3      3    4
                                                                 
     3C2'     2    5    6
                                                                 
     i        7
                                                                 
     2S6      9   10
                                                                 
     3s_d     8   11   12
                                                                 

     Band symmetry, D_3d (-3m)  point group:

     e(  1 -  2) =    -13.41032  eV     2   --> E_g  L_3       
     e(  3 -  4) =    -13.32138  eV     2   --> E_u  L_3'      
     e(  5 -  5) =    -13.29757  eV     1   --> A_2u L_2'      
     e(  6 -  6) =    -13.21239  eV     1   --> A_1g L_1       
     e(  7 -  8) =    -13.19367  eV     2   --> E_g  L_3       
     e(  9 - 10) =    -13.14000  eV     2   --> E_u  L_3'      
     e( 11 - 11) =     -2.43447  eV     1   --> A_1g L_1       
     e( 12 - 12) =     -0.43166  eV     1   --> A_2u L_2'      
     e( 13 - 13) =      8.19250  eV     1   --> A_2u L_2'      
     e( 14 - 15) =      8.51351  eV     2   --> E_g  L_3       
     e( 16 - 17) =      9.88382  eV     2   --> E_u  L_3'      
     e( 18 - 18) =      9.91547  eV     1   --> A_1g L_1       
     e( 19 - 19) =     16.12372  eV     1   --> A_1g L_1       

 **************************************************************************

 **************************************************************************

                    xk=(   0.00899,   0.00000,   0.60093  )

     point group C_2  (2)   
     there are  2 classes
     the character table:

       E     C2   
A      1.00  1.00
B      1.00 -1.00

     the symmetry operations in each class and the name of the first element:

     E        1
                                                                 
     C2       2
                                                                 

     Band symmetry, C_2  (2)    point group:

     e(  1 -  2) =    -13.41034  eV     2   --> A              
     e(  1 -  2) =    -13.41034  eV     2   --> B              
     e(  3 -  4) =    -13.32139  eV     2   --> A              
     e(  3 -  4) =    -13.32139  eV     2   --> B              
     e(  5 -  5) =    -13.29757  eV     1   --> B              
     e(  6 -  6) =    -13.21239  eV     1   --> A              
     e(  7 -  8) =    -13.19368  eV     2   --> A              
     e(  7 -  8) =    -13.19368  eV     2   --> B              
     e(  9 - 10) =    -13.14001  eV     2   --> A              
     e(  9 - 10) =    -13.14001  eV     2   --> B              
     e( 11 - 11) =     -2.43410  eV     1   --> A              
     e( 12 - 12) =     -0.43160  eV     1   --> B              
     e( 13 - 13) =      8.16836  eV     1   --> B              
     e( 14 - 14) =      8.51067  eV     1   --> A              
     e( 15 - 15) =      8.53574  eV     1   --> B              
     e( 16 - 16) =      9.81179  eV     1   --> A              
     e( 17 - 17) =      9.88720  eV     1   --> B              
     e( 18 - 18) =      9.99099  eV     1   --> A              
     e( 19 - 19) =     16.12188  eV     1   --> A              

 **************************************************************************

 **************************************************************************

                    xk=(   0.01799,   0.00000,   0.60093  )

     Band symmetry, C_2  (2)    point group:

     e(  1 -  2) =    -13.41039  eV     2   --> A              
     e(  1 -  2) =    -13.41039  eV     2   --> B              
     e(  3 -  4) =    -13.32140  eV     2   --> A              
     e(  3 -  4) =    -13.32140  eV     2   --> B              
     e(  5 -  5) =    -13.29757  eV     1   --> B              
     e(  6 -  6) =    -13.21239  eV     1   --> A              
     e(  7 -  8) =    -13.19371  eV     2   --> A              
     e(  7 -  8) =    -13.19371  eV     2   --> B              
     e(  9 -  9) =    -13.14006  eV     1   --> A              
     e( 10 - 10) =    -13.13991  eV     1   --> B              
     e( 11 - 11) =     -2.43298  eV     1   --> A              
     e( 12 - 12) =     -0.43142  eV     1   --> B              
     e( 13 - 13) =      8.10938  eV     1   --> B              
     e( 14 - 14) =      8.50207  eV     1   --> A              
     e( 15 - 15) =      8.58894  eV     1   --> B              
     e( 16 - 16) =      9.73006  eV     1   --> A              
     e( 17 - 17) =      9.89743  eV     1   --> B              
     e( 18 - 18) =     10.08326  eV     1   --> A              
     e( 19 - 19) =     16.11637  eV     1   --> A              

 **************************************************************************

 **************************************************************************

                    xk=(   0.02698,   0.00000,   0.60093  )

     Band symmetry, C_2  (2)    point group:

     e(  1 -  1) =    -13.41048  eV     1   --> A              
     e(  2 -  2) =    -13.41026  eV     1   --> B              
     e(  3 -  3) =    -13.32142  eV     1   --> A              
     e(  4 -  4) =    -13.32123  eV     1   --> B              
     e(  5 -  5) =    -13.29756  eV     1   --> B              
     e(  6 -  6) =    -13.21239  eV     1   --> A              
     e(  7 -  7) =    -13.19377  eV     1   --> A              
     e(  8 -  8) =    -13.19364  eV     1   --> B              
     e(  9 -  9) =    -13.14013  eV     1   --> A              
     e( 10 - 10) =    -13.13980  eV     1   --> B              
     e( 11 - 11) =     -2.43112  eV     1   --> A              
     e( 12 - 12) =     -0.43112  eV     1   --> B              
     e( 13 - 13) =      8.03364  eV     1   --> B              
     e( 14 - 14) =      8.48759  eV     1   --> A              
     e( 15 - 15) =      8.65484  eV     1   --> B              
     e( 16 - 16) =      9.65245  eV     1   --> A              
     e( 17 - 17) =      9.91466  eV     1   --> B              
     e( 18 - 18) =     10.17860  eV     1   --> A              
     e( 19 - 19) =     16.10722  eV     1   --> A              

 **************************************************************************

 **************************************************************************

                    xk=(   0.03598,   0.00000,   0.60093  )

     Band symmetry, C_2  (2)    point group:

     e(  1 -  1) =    -13.41060  eV     1   --> A              
     e(  2 -  2) =    -13.41021  eV     1   --> B              
     e(  3 -  3) =    -13.32144  eV     1   --> A              
     e(  4 -  4) =    -13.32112  eV     1   --> B              
     e(  5 -  5) =    -13.29755  eV     1   --> B              
     e(  6 -  6) =    -13.21240  eV     1   --> A              
     e(  7 -  7) =    -13.19386  eV     1   --> A              
     e(  8 -  8) =    -13.19363  eV     1   --> B              
     e(  9 -  9) =    -13.14023  eV     1   --> A              
     e( 10 - 10) =    -13.13965  eV     1   --> B              
     e( 11 - 11) =     -2.42852  eV     1   --> A              
     e( 12 - 12) =     -0.43070  eV     1   --> B              
     e( 13 - 13) =      7.95017  eV     1   --> B              
     e( 14 - 14) =      8.46701  eV     1   --> A              
     e( 15 - 15) =      8.72417  eV     1   --> B              
     e( 16 - 16) =      9.57984  eV     1   --> A              
     e( 17 - 17) =      9.93914  eV     1   --> B              
     e( 18 - 18) =     10.27630  eV     1   --> A              
     e( 19 - 19) =     16.09452  eV     1   --> A              

 **************************************************************************

 **************************************************************************

                    xk=(   0.04497,   0.00000,   0.60093  )

     Band symmetry, C_2  (2)    point group:

     e(  1 -  1) =    -13.41075  eV     1   --> A              
     e(  2 -  2) =    -13.41015  eV     1   --> B              
     e(  3 -  3) =    -13.32147  eV     1   --> A              
     e(  4 -  4) =    -13.32097  eV     1   --> B              
     e(  5 -  5) =    -13.29753  eV     1   --> B              
     e(  6 -  6) =    -13.21240  eV     1   --> A              
     e(  7 -  7) =    -13.19397  eV     1   --> A              
     e(  8 -  8) =    -13.19361  eV     1   --> B              
     e(  9 -  9) =    -13.14035  eV     1   --> A              
     e( 10 - 10) =    -13.13946  eV     1   --> B              
     e( 11 - 11) =     -2.42518  eV     1   --> A              
     e( 12 - 12) =     -0.43017  eV     1   --> B              
     e( 13 - 13) =      7.86284  eV     1   --> B              
     e( 14 - 14) =      8.44013  eV     1   --> A              
     e( 15 - 15) =      8.79277  eV     1   --> B              
     e( 16 - 16) =      9.51283  eV     1   --> A              
     e( 17 - 17) =      9.97115  eV     1   --> B              
     e( 18 - 18) =     10.37596  eV     1   --> A              
     e( 19 - 19) =     16.07835  eV     1   --> A              

 **************************************************************************

 **************************************************************************

                    xk=(   0.05397,  -0.00000,   0.60093  )

     Band symmetry, C_2  (2)    point group:

     e(  1 -  1) =    -13.41093  eV     1   --> A              
     e(  2 -  2) =    -13.41007  eV     1   --> B              
     e(  3 -  3) =    -13.32151  eV     1   --> A              
[...]

     Band symmetry, C_s (m)     point group:

     e(  1 -  1) =    -13.48375  eV     1   --> A''            
     e(  2 -  2) =    -13.46808  eV     1   --> A'             
     e(  3 -  3) =    -13.34892  eV     1   --> A'             
     e(  4 -  4) =    -13.34256  eV     1   --> A''            
     e(  5 -  5) =    -13.32409  eV     1   --> A'             
     e(  6 -  6) =    -13.18853  eV     1   --> A'             
     e(  7 -  7) =    -13.17789  eV     1   --> A''            
     e(  8 -  8) =    -13.17259  eV     1   --> A'             
     e(  9 -  9) =    -13.07622  eV     1   --> A'             
     e( 10 - 10) =    -13.05779  eV     1   --> A''            
     e( 11 - 11) =     -3.43093  eV     1   --> A'             
     e( 12 - 12) =      1.47741  eV     1   --> A'             
     e( 13 - 13) =      7.63123  eV     1   --> A'             
     e( 14 - 14) =      7.76288  eV     1   --> A''            
     e( 15 - 15) =      8.43352  eV     1   --> A'             
     e( 16 - 16) =     10.78571  eV     1   --> A'             
     e( 17 - 17) =     11.76988  eV     1   --> A'             
     e( 18 - 18) =     12.17400  eV     1   --> A''            
     e( 19 - 19) =     14.39727  eV     1   --> A'             

 **************************************************************************

 **************************************************************************

                    xk=(   0.09541,  -0.05508,   0.07345  )

     Band symmetry, C_s (m)     point group:

     e(  1 -  1) =    -13.48392  eV     1   --> A''            
     e(  2 -  2) =    -13.47067  eV     1   --> A'             
     e(  3 -  3) =    -13.34902  eV     1   --> A'             
     e(  4 -  4) =    -13.34374  eV     1   --> A''            
     e(  5 -  5) =    -13.32505  eV     1   --> A'             
     e(  6 -  6) =    -13.18756  eV     1   --> A'             
     e(  7 -  7) =    -13.17691  eV     1   --> A''            
     e(  8 -  8) =    -13.17253  eV     1   --> A'             
     e(  9 -  9) =    -13.07332  eV     1   --> A'             
     e( 10 - 10) =    -13.05772  eV     1   --> A''            
     e( 11 - 11) =     -3.44867  eV     1   --> A'             
     e( 12 - 12) =      1.51335  eV     1   --> A'             
     e( 13 - 13) =      7.66755  eV     1   --> A'             
     e( 14 - 14) =      7.79329  eV     1   --> A''            
     e( 15 - 15) =      8.35876  eV     1   --> A'             
     e( 16 - 16) =     10.91659  eV     1   --> A'             
     e( 17 - 17) =     11.76215  eV     1   --> A'             
     e( 18 - 18) =     12.14890  eV     1   --> A''            
     e( 19 - 19) =     14.45827  eV     1   --> A'             

 **************************************************************************

 **************************************************************************

                    xk=(   0.08673,  -0.05008,   0.06677  )

     Band symmetry, C_s (m)     point group:

     e(  1 -  1) =    -13.48407  eV     1   --> A''            
     e(  2 -  2) =    -13.47306  eV     1   --> A'             
     e(  3 -  3) =    -13.34914  eV     1   --> A'             
     e(  4 -  4) =    -13.34483  eV     1   --> A''            
     e(  5 -  5) =    -13.32591  eV     1   --> A'             
     e(  6 -  6) =    -13.18670  eV     1   --> A'             
     e(  7 -  7) =    -13.17600  eV     1   --> A''            
     e(  8 -  8) =    -13.17245  eV     1   --> A'             
     e(  9 -  9) =    -13.07063  eV     1   --> A'             
     e( 10 - 10) =    -13.05766  eV     1   --> A''            
     e( 11 - 11) =     -3.46491  eV     1   --> A'             
     e( 12 - 12) =      1.54713  eV     1   --> A'             
     e( 13 - 13) =      7.70120  eV     1   --> A'             
     e( 14 - 14) =      7.82174  eV     1   --> A''            
     e( 15 - 15) =      8.28838  eV     1   --> A'             
     e( 16 - 16) =     11.04144  eV     1   --> A'             
     e( 17 - 17) =     11.75797  eV     1   --> A'             
     e( 18 - 18) =     12.12564  eV     1   --> A''            
     e( 19 - 19) =     14.52128  eV     1   --> A'             

 **************************************************************************

 **************************************************************************

                    xk=(   0.07806,  -0.04507,   0.06009  )

     Band symmetry, C_s (m)     point group:

     e(  1 -  1) =    -13.48420  eV     1   --> A''            
     e(  2 -  2) =    -13.47524  eV     1   --> A'             
     e(  3 -  3) =    -13.34927  eV     1   --> A'             
     e(  4 -  4) =    -13.34583  eV     1   --> A''            
     e(  5 -  5) =    -13.32668  eV     1   --> A'             
     e(  6 -  6) =    -13.18593  eV     1   --> A'             
     e(  7 -  7) =    -13.17518  eV     1   --> A''            
     e(  8 -  8) =    -13.17235  eV     1   --> A'             
     e(  9 -  9) =    -13.06817  eV     1   --> A'             
     e( 10 - 10) =    -13.05760  eV     1   --> A''            
     e( 11 - 11) =     -3.47964  eV     1   --> A'             
     e( 12 - 12) =      1.57851  eV     1   --> A'             
     e( 13 - 13) =      7.73189  eV     1   --> A'             
     e( 14 - 14) =      7.84806  eV     1   --> A''            
     e( 15 - 15) =      8.22331  eV     1   --> A'             
     e( 16 - 16) =     11.15692  eV     1   --> A'             
     e( 17 - 17) =     11.75907  eV     1   --> A'             
     e( 18 - 18) =     12.10428  eV     1   --> A''            
     e( 19 - 19) =     14.58592  eV     1   --> A'             

 **************************************************************************

 **************************************************************************

                    xk=(   0.06939,  -0.04006,   0.05342  )

     Band symmetry, C_s (m)     point group:

     e(  1 -  1) =    -13.48433  eV     1   --> A''            
     e(  2 -  2) =    -13.47722  eV     1   --> A'             
     e(  3 -  3) =    -13.34941  eV     1   --> A'             
     e(  4 -  4) =    -13.34672  eV     1   --> A''            
     e(  5 -  5) =    -13.32735  eV     1   --> A'             
     e(  6 -  6) =    -13.18526  eV     1   --> A'             
     e(  7 -  7) =    -13.17443  eV     1   --> A''            
     e(  8 -  8) =    -13.17224  eV     1   --> A'             
     e(  9 -  9) =    -13.06594  eV     1   --> A'             
     e( 10 - 10) =    -13.05755  eV     1   --> A''            
     e( 11 - 11) =     -3.49284  eV     1   --> A'             
     e( 12 - 12) =      1.60730  eV     1   --> A'             
     e( 13 - 13) =      7.75929  eV     1   --> A'             
     e( 14 - 14) =      7.87210  eV     1   --> A''            
     e( 15 - 15) =      8.16432  eV     1   --> A'             
     e( 16 - 16) =     11.25908  eV     1   --> A'             
     e( 17 - 17) =     11.76782  eV     1   --> A'             
     e( 18 - 18) =     12.08492  eV     1   --> A''            
     e( 19 - 19) =     14.65172  eV     1   --> A'             

 **************************************************************************

 **************************************************************************

                    xk=(   0.06071,  -0.03505,   0.04674  )

     Band symmetry, C_s (m)     point group:

     e(  1 -  1) =    -13.48444  eV     1   --> A''            
     e(  2 -  2) =    -13.47897  eV     1   --> A'             
     e(  3 -  3) =    -13.34956  eV     1   --> A'             
     e(  4 -  4) =    -13.34752  eV     1   --> A''            
     e(  5 -  5) =    -13.32793  eV     1   --> A'             
     e(  6 -  6) =    -13.18469  eV     1   --> A'             
     e(  7 -  7) =    -13.17377  eV     1   --> A''            
     e(  8 -  8) =    -13.17212  eV     1   --> A'             
     e(  9 -  9) =    -13.06396  eV     1   --> A'             
     e( 10 - 10) =    -13.05751  eV     1   --> A''            
     e( 11 - 11) =     -3.50450  eV     1   --> A'             
     e( 12 - 12) =      1.63328  eV     1   --> A'             
     e( 13 - 13) =      7.78299  eV     1   --> A'             
     e( 14 - 14) =      7.89370  eV     1   --> A''            
     e( 15 - 15) =      8.11218  eV     1   --> A'             
     e( 16 - 16) =     11.34352  eV     1   --> A'             
     e( 17 - 17) =     11.78699  eV     1   --> A'             
     e( 18 - 18) =     12.06763  eV     1   --> A''            
     e( 19 - 19) =     14.71802  eV     1   --> A'             

 **************************************************************************

 **************************************************************************

                    xk=(   0.05204,  -0.03005,   0.04006  )

     Band symmetry, C_s (m)     point group:

     e(  1 -  1) =    -13.48453  eV     1   --> A''            
     e(  2 -  2) =    -13.48050  eV     1   --> A'             
     e(  3 -  3) =    -13.34969  eV     1   --> A'             
     e(  4 -  4) =    -13.34821  eV     1   --> A''            
     e(  5 -  5) =    -13.32842  eV     1   --> A'             
     e(  6 -  6) =    -13.18420  eV     1   --> A'             
     e(  7 -  7) =    -13.17319  eV     1   --> A''            
     e(  8 -  8) =    -13.17200  eV     1   --> A'             
     e(  9 -  9) =    -13.06223  eV     1   --> A'             
     e( 10 - 10) =    -13.05747  eV     1   --> A''            
     e( 11 - 11) =     -3.51463  eV     1   --> A'             
     e( 12 - 12) =      1.65625  eV     1   --> A'             
     e( 13 - 13) =      7.80250  eV     1   --> A'             
     e( 14 - 14) =      7.91274  eV     1   --> A''            
     e( 15 - 15) =      8.06761  eV     1   --> A'             
     e( 16 - 16) =     11.40704  eV     1   --> A'             
     e( 17 - 17) =     11.81810  eV     1   --> A'             
     e( 18 - 18) =     12.05248  eV     1   --> A''            
     e( 19 - 19) =     14.78394  eV     1   --> A'             

 **************************************************************************

 **************************************************************************

                    xk=(   0.04337,  -0.02504,   0.03339  )

     Band symmetry, C_s (m)     point group:

     e(  1 -  1) =    -13.48462  eV     1   --> A''            
     e(  2 -  2) =    -13.48181  eV     1   --> A'             
     e(  3 -  3) =    -13.34982  eV     1   --> A'             
     e(  4 -  4) =    -13.34880  eV     1   --> A''            
     e(  5 -  5) =    -13.32883  eV     1   --> A'             
     e(  6 -  6) =    -13.18381  eV     1   --> A'             
     e(  7 -  7) =    -13.17270  eV     1   --> A''            
     e(  8 -  8) =    -13.17189  eV     1   --> A'             
     e(  9 -  9) =    -13.06075  eV     1   --> A'             
     e( 10 - 10) =    -13.05744  eV     1   --> A''            
     e( 11 - 11) =     -3.52321  eV     1   --> A'             
     e( 12 - 12) =      1.67603  eV     1   --> A'             
     e( 13 - 13) =      7.81731  eV     1   --> A'             
     e( 14 - 14) =      7.92908  eV     1   --> A''            
     e( 15 - 15) =      8.03133  eV     1   --> A'             
     e( 16 - 16) =     11.44994  eV     1   --> A'             
     e( 17 - 17) =     11.85916  eV     1   --> A'             
     e( 18 - 18) =     12.03953  eV     1   --> A''            
     e( 19 - 19) =     14.84810  eV     1   --> A'             

 **************************************************************************

 **************************************************************************

                    xk=(   0.03469,  -0.02003,   0.02671  )

     Band symmetry, C_s (m)     point group:

     e(  1 -  1) =    -13.48468  eV     1   --> A''            
     e(  2 -  2) =    -13.48288  eV     1   --> A'             
     e(  3 -  3) =    -13.34993  eV     1   --> A'             
     e(  4 -  4) =    -13.34929  eV     1   --> A''            
     e(  5 -  5) =    -13.32916  eV     1   --> A'             
     e(  6 -  6) =    -13.18349  eV     1   --> A'             
     e(  7 -  7) =    -13.17230  eV     1   --> A''            
     e(  8 -  8) =    -13.17179  eV     1   --> A'             
     e(  9 -  9) =    -13.05954  eV     1   --> A'             
     e( 10 - 10) =    -13.05741  eV     1   --> A''            
     e( 11 - 11) =     -3.53024  eV     1   --> A'             
     e( 12 - 12) =      1.69245  eV     1   --> A'             
     e( 13 - 13) =      7.82701  eV     1   --> A'             
     e( 14 - 14) =      7.94260  eV     1   --> A''            
     e( 15 - 15) =      8.00388  eV     1   --> A'             
     e( 16 - 16) =     11.47637  eV     1   --> A'             
     e( 17 - 17) =     11.90431  eV     1   --> A'             
     e( 18 - 18) =     12.02885  eV     1   --> A''            
     e( 19 - 19) =     14.90695  eV     1   --> A'             

 **************************************************************************

 **************************************************************************

                    xk=(   0.02602,  -0.01502,   0.02003  )

     Band symmetry, C_s (m)     point group:

     e(  1 -  1) =    -13.48473  eV     1   --> A''            
     e(  2 -  2) =    -13.48372  eV     1   --> A'             
     e(  3 -  3) =    -13.35003  eV     1   --> A'             
     e(  4 -  4) =    -13.34967  eV     1   --> A''            
     e(  5 -  5) =    -13.32941  eV     1   --> A'             
     e(  6 -  6) =    -13.18325  eV     1   --> A'             
     e(  7 -  7) =    -13.17198  eV     1   --> A''            
     e(  8 -  8) =    -13.17170  eV     1   --> A'             
     e(  9 -  9) =    -13.05859  eV     1   --> A'             
     e( 10 - 10) =    -13.05739  eV     1   --> A''            
     e( 11 - 11) =     -3.53571  eV     1   --> A'             
     e( 12 - 12) =      1.70538  eV     1   --> A'             
     e( 13 - 13) =      7.83180  eV     1   --> A'             
     e( 14 - 14) =      7.95323  eV     1   --> A''            
     e( 15 - 15) =      7.98519  eV     1   --> A'             
     e( 16 - 16) =     11.49167  eV     1   --> A'             
     e( 17 - 17) =     11.94663  eV     1   --> A'             
     e( 18 - 18) =     12.02048  eV     1   --> A''            
     e( 19 - 19) =     14.93814  eV     1   --> A'             

 **************************************************************************

 **************************************************************************

                    xk=(   0.01735,  -0.01002,   0.01335  )

     Band symmetry, C_s (m)     point group:

     e(  1 -  1) =    -13.48477  eV     1   --> A''            
     e(  2 -  2) =    -13.48432  eV     1   --> A'             
     e(  3 -  3) =    -13.35010  eV     1   --> A'             
     e(  4 -  4) =    -13.34994  eV     1   --> A''            
     e(  5 -  5) =    -13.32959  eV     1   --> A'             
     e(  6 -  6) =    -13.18308  eV     1   --> A'             
     e(  7 -  7) =    -13.17175  eV     1   --> A''            
     e(  8 -  8) =    -13.17163  eV     1   --> A'             
     e(  9 -  9) =    -13.05791  eV     1   --> A'             
     e( 10 - 10) =    -13.05738  eV     1   --> A''            
     e( 11 - 11) =     -3.53961  eV     1   --> A'             
     e( 12 - 12) =      1.71470  eV     1   --> A'             
     e( 13 - 13) =      7.83291  eV     1   --> A'             
     e( 14 - 14) =      7.96087  eV     1   --> A''            
     e( 15 - 15) =      7.97409  eV     1   --> A'             
     e( 16 - 16) =     11.50006  eV     1   --> A'             
     e( 17 - 17) =     11.98051  eV     1   --> A'             
     e( 18 - 18) =     12.01448  eV     1   --> A''            
     e( 19 - 19) =     14.96351  eV     1   --> A'             

 **************************************************************************

 **************************************************************************

                    xk=(   0.00867,  -0.00501,   0.00668  )

     Band symmetry, C_s (m)     point group:

     e(  1 -  1) =    -13.48479  eV     1   --> A''            
     e(  2 -  2) =    -13.48468  eV     1   --> A'             
     e(  3 -  4) =    -13.35014  eV     2   --> A'             
     e(  3 -  4) =    -13.35014  eV     2   --> A''            
     e(  5 -  5) =    -13.32969  eV     1   --> A'             
     e(  6 -  6) =    -13.18298  eV     1   --> A'             
     e(  7 -  8) =    -13.17162  eV     2   --> A'             
     e(  7 -  8) =    -13.17162  eV     2   --> A''            
     e(  9 -  9) =    -13.05750  eV     1   --> A'             
     e( 10 - 10) =    -13.05737  eV     1   --> A''            
     e( 11 - 11) =     -3.54196  eV     1   --> A'             
     e( 12 - 12) =      1.72032  eV     1   --> A'             
     e( 13 - 13) =      7.83237  eV     1   --> A'             
     e( 14 - 14) =      7.96548  eV     1   --> A''            
     e( 15 - 15) =      7.96862  eV     1   --> A'             
     e( 16 - 16) =     11.50419  eV     1   --> A'             
     e( 17 - 17) =     12.00220  eV     1   --> A'             
     e( 18 - 18) =     12.01086  eV     1   --> A''            
     e( 19 - 19) =     14.98699  eV     1   --> A'             

 **************************************************************************

 **************************************************************************

                    xk=(   0.00000,   0.00000,   0.00000  )

     point group D_3d (-3m) 
     there are  6 classes
     the character table:

       E     2C3   3C2'  i     2S6   3s_d 
A_1g   1.00  1.00  1.00  1.00  1.00  1.00
A_2g   1.00  1.00 -1.00  1.00  1.00 -1.00
E_g    2.00 -1.00  0.00  2.00 -1.00  0.00
A_1u   1.00  1.00  1.00 -1.00 -1.00 -1.00
A_2u   1.00  1.00 -1.00 -1.00 -1.00  1.00
E_u    2.00 -1.00  0.00 -2.00  1.00  0.00

     the symmetry operations in each class and the name of the first element:

     E        1
                                                                 
     2C3      3    4
                                                                 
     3C2'     2    5    6
                                                                 
     i        7
                                                                 
     2S6      9   10
                                                                 
     3s_d     8   11   12
                                                                 

     Band symmetry, D_3d (-3m)  point group:

     e(  1 -  2) =    -13.48480  eV     2   --> E_g  L_3       
     e(  3 -  4) =    -13.35015  eV     2   --> E_u  L_3'      
     e(  5 -  5) =    -13.32973  eV     1   --> A_2u L_2'      
     e(  6 -  6) =    -13.18295  eV     1   --> A_1g L_1       
     e(  7 -  8) =    -13.17157  eV     2   --> E_g  L_3       
     e(  9 - 10) =    -13.05737  eV     2   --> E_u  L_3'      
     e( 11 - 11) =     -3.54274  eV     1   --> A_1g L_1       
     e( 12 - 12) =      1.72220  eV     1   --> A_2u L_2'      
     e( 13 - 13) =      7.83196  eV     1   --> A_1g L_1       
     e( 14 - 15) =      7.96702  eV     2   --> E_g  L_3       
     e( 16 - 16) =     11.50543  eV     1   --> A_2u L_2'      
     e( 17 - 18) =     12.00966  eV     2   --> E_u  L_3'      
     e( 19 - 19) =     14.99736  eV     1   --> A_2u L_2'      

 **************************************************************************
 
     BANDS        :    32.35s CPU        33.96s WALL

 
   This run was terminated on:  17:51:49  23Mar2020            

=------------------------------------------------------------------------------=
   JOB DONE.
=------------------------------------------------------------------------------=
