mpijob CMD    : mpirun -f /tmp/mpiexec.params.k014709.11992
mpijob PARAMS : -d /home/k0147/k014709/research/dft/get_rep/program/example/Bi_nonsoc
        r1i0n0 24 omplace -nt 1
        "/home/k0147/k014709/research/dft/qe-6.2/bin/pw.x"

SGI MPT Placement option
--------------------------
omplace -nt 1

Node   MPI
------------
r1i0n0 24


     Program PWSCF v.6.2 (svn rev. 13949:13950) starts on 23Mar2020 at 17:49:57 

     This program is part of the open-source Quantum ESPRESSO suite
     for quantum simulation of materials; please cite
         "P. Giannozzi et al., J. Phys.:Condens. Matter 21 395502 (2009);
         "P. Giannozzi et al., J. Phys.:Condens. Matter 29 465901 (2017);
          URL http://www.quantum-espresso.org", 
     in publications or presentations arising from this work. More details at
     http://www.quantum-espresso.org/quote

     Parallel version (MPI), running on    24 processors

     MPI processes distributed on     1 nodes
     R & G space division:  proc/nbgrp/npool/nimage =      24
     Waiting for input...
     Reading input from standard input

     Current dimensions of program PWSCF are:
     Max number of different atomic species (ntypx) = 10
     Max number of k-points (npk) =  40000
     Max angular momentum in pseudopotentials (lmaxx) =  3

     Subspace diagonalization in iterative solution of the eigenvalue problem:
     a serial algorithm will be used

 
     Parallelization info
     --------------------
     sticks:   dense  smooth     PW     G-vecs:    dense   smooth      PW
     Min          91      91     26                 2787     2787     435
     Max          92      92     27                 2793     2793     437
     Sum        2197    2197    641                66925    66925   10459
 


     bravais-lattice index     =            0
     lattice parameter (alat)  =       9.0662  a.u.
     unit-cell volume          =     495.7043 (a.u.)^3
     number of atoms/cell      =            2
     number of atomic types    =            1
     number of electrons       =        30.00
     number of Kohn-Sham states=           19
     kinetic-energy cutoff     =     100.0000  Ry
     charge density cutoff     =     400.0000  Ry
     convergence threshold     =      1.0E-08
     mixing beta               =       0.3000
     number of iterations used =            8  plain     mixing
     Exchange-correlation      = PBE ( 1  4  3  4 0 0)

     celldm(1)=   9.066241  celldm(2)=   0.000000  celldm(3)=   0.000000
     celldm(4)=   0.000000  celldm(5)=   0.000000  celldm(6)=   0.000000

     crystal axes: (cart. coord. in units of alat)
               a(1) = (   0.480401   0.277359   0.832038 )  
               a(2) = (  -0.480401   0.277359   0.832038 )  
               a(3) = (   0.000000  -0.554719   0.832038 )  

     reciprocal axes: (cart. coord. in units 2 pi/alat)
               b(1) = (  1.040798  0.600905  0.400623 )  
               b(2) = ( -1.040798  0.600905  0.400623 )  
               b(3) = (  0.000000 -1.201810  0.400623 )  


     PseudoPot. # 1 for Bi read from file:
     ~/research/dft/ONCVPSP-master/abinit/Bi_ONCV_PBE_fr.upf
     MD5 check sum: Not computed, couldn't open file
     Pseudo is Norm-conserving + core correction, Zval = 15.0
     Generated using ONCVPSP code by D. R. Hamann
     Using radial grid of 1562 points,  6 beta functions with: 
                l(1) =   0
                l(2) =   0
                l(3) =   1
                l(4) =   1
                l(5) =   2
                l(6) =   2

     atomic species   valence    mass     pseudopotential
        Bi            15.00   208.98040     Bi( 1.00)

     12 Sym. Ops., with inversion, found



   Cartesian axes

     site n.     atom                  positions (alat units)
         1           Bi  tau(   1) = (   0.0000000   0.0000000   0.6670014  )
         2           Bi  tau(   2) = (   0.4804007   0.2773595   0.1650364  )

     number of k points=    65  Methfessel-Paxton smearing, width (Ry)=  0.0100
                       cart. coord. in units 2pi/alat
        k(    1) = (   0.0000000   0.0000000   0.0000000), wk =   0.0039062
        k(    2) = (   0.0000000  -0.1502262   0.0500779), wk =   0.0234375
        k(    3) = (   0.0000000  -0.3004525   0.1001557), wk =   0.0234375
        k(    4) = (   0.0000000  -0.4506787   0.1502336), wk =   0.0234375
        k(    5) = (   0.0000000   0.6009049  -0.2003114), wk =   0.0117188
        k(    6) = (  -0.1300997  -0.0751131   0.1001557), wk =   0.0234375
        k(    7) = (  -0.1300997  -0.2253393   0.1502336), wk =   0.0468750
        k(    8) = (  -0.1300997  -0.3755656   0.2003114), wk =   0.0468750
        k(    9) = (  -0.1300997   0.6760180  -0.1502336), wk =   0.0468750
        k(   10) = (  -0.1300997   0.5257918  -0.1001557), wk =   0.0468750
        k(   11) = (  -0.1300997   0.3755656  -0.0500779), wk =   0.0468750
        k(   12) = (  -0.1300997   0.2253393   0.0000000), wk =   0.0234375
        k(   13) = (  -0.2601995  -0.1502262   0.2003114), wk =   0.0234375
        k(   14) = (  -0.2601995  -0.3004525   0.2503893), wk =   0.0468750
        k(   15) = (  -0.2601995   0.7511312  -0.1001557), wk =   0.0468750
        k(   16) = (  -0.2601995   0.6009049  -0.0500779), wk =   0.0468750
        k(   17) = (  -0.2601995   0.4506787   0.0000000), wk =   0.0234375
        k(   18) = (  -0.3902992  -0.2253393   0.3004671), wk =   0.0234375
        k(   19) = (  -0.3902992   0.8262443  -0.0500779), wk =   0.0468750
        k(   20) = (  -0.3902992   0.6760180   0.0000000), wk =   0.0234375
        k(   21) = (   0.5203989   0.3004525  -0.4006228), wk =   0.0117188
        k(   22) = (   0.0000000   0.0000000   0.1502336), wk =   0.0078125
        k(   23) = (   0.0000000  -0.1502262   0.2003114), wk =   0.0234375
        k(   24) = (   0.0000000  -0.3004525   0.2503893), wk =   0.0234375
        k(   25) = (   0.0000000   0.7511312  -0.1001557), wk =   0.0234375
        k(   26) = (   0.0000000   0.6009049  -0.0500779), wk =   0.0234375
        k(   27) = (   0.0000000   0.4506787   0.0000000), wk =   0.0234375
        k(   28) = (   0.0000000   0.3004525   0.0500779), wk =   0.0234375
        k(   29) = (  -0.1300997  -0.0751131   0.2503893), wk =   0.0234375
        k(   30) = (  -0.1300997  -0.2253393   0.3004671), wk =   0.0468750
        k(   31) = (  -0.1300997   0.8262443  -0.0500779), wk =   0.0468750
        k(   32) = (  -0.1300997   0.6760180   0.0000000), wk =   0.0468750
        k(   33) = (  -0.1300997   0.5257918   0.0500779), wk =   0.0468750
        k(   34) = (  -0.1300997   0.3755656   0.1001557), wk =   0.0468750
        k(   35) = (  -0.2601995  -0.1502262   0.3505450), wk =   0.0234375
        k(   36) = (  -0.2601995   0.9013574   0.0000000), wk =   0.0468750
        k(   37) = (  -0.2601995   0.7511312   0.0500779), wk =   0.0468750
        k(   38) = (  -0.2601995   0.6009049   0.1001557), wk =   0.0468750
        k(   39) = (  -0.2601995   0.4506787   0.1502336), wk =   0.0468750
        k(   40) = (   0.6504987   0.3755656  -0.3505450), wk =   0.0234375
        k(   41) = (   0.6504987   0.2253393  -0.3004671), wk =   0.0468750
        k(   42) = (   0.6504987   0.0751131  -0.2503893), wk =   0.0468750
        k(   43) = (   0.6504987  -0.0751131  -0.2003114), wk =   0.0234375
        k(   44) = (   0.5203989   0.3004525  -0.2503893), wk =   0.0234375
        k(   45) = (   0.5203989   0.1502262  -0.2003114), wk =   0.0468750
        k(   46) = (   0.3902992   0.2253393  -0.1502336), wk =   0.0234375
        k(   47) = (   0.0000000   0.0000000   0.3004671), wk =   0.0078125
        k(   48) = (   0.0000000  -0.1502262   0.3505450), wk =   0.0234375
        k(   49) = (   0.0000000   0.9013574   0.0000000), wk =   0.0234375
        k(   50) = (   0.0000000   0.7511312   0.0500779), wk =   0.0234375
        k(   51) = (   0.0000000   0.6009049   0.1001557), wk =   0.0234375
        k(   52) = (  -0.1300997  -0.0751131   0.4006228), wk =   0.0234375
        k(   53) = (  -0.1300997   0.9764705   0.0500779), wk =   0.0468750
        k(   54) = (  -0.1300997   0.8262443   0.1001557), wk =   0.0468750
        k(   55) = (  -0.1300997   0.6760180   0.1502336), wk =   0.0468750
        k(   56) = (   0.7805984   0.4506787  -0.3004671), wk =   0.0234375
        k(   57) = (   0.7805984   0.3004525  -0.2503893), wk =   0.0468750
        k(   58) = (   0.7805984   0.1502262  -0.2003114), wk =   0.0234375
        k(   59) = (   0.6504987   0.3755656  -0.2003114), wk =   0.0234375
        k(   60) = (   0.0000000   0.0000000   0.4507007), wk =   0.0078125
        k(   61) = (   0.0000000   1.0515836   0.1001557), wk =   0.0234375
        k(   62) = (   0.0000000   0.9013574   0.1502336), wk =   0.0234375
        k(   63) = (   0.9106981   0.5257918  -0.2503893), wk =   0.0234375
        k(   64) = (   0.9106981   0.3755656  -0.2003114), wk =   0.0234375
        k(   65) = (   0.0000000   0.0000000  -0.6009342), wk =   0.0039062

     Dense  grid:    66925 G-vectors     FFT dimensions: (  60,  60,  60)

     Estimated max dynamical RAM per process >      12.15 MB

     Estimated total dynamical RAM >     291.53 MB

     Initial potential from superposition of free atoms

     starting charge   29.99783, renormalised to   30.00000
     Starting wfc are   18 randomized atomic wfcs +    1 random wfc

     total cpu time spent up to now is        2.8 secs

     Self-consistent Calculation

     iteration #  1     ecut=   100.00 Ry     beta= 0.30
     Davidson diagonalization with overlap
     ethr =  1.00E-02,  avg # of iterations =  4.2

     Threshold (ethr) on eigenvalues was too large:
     Diagonalizing with lowered threshold

     Davidson diagonalization with overlap
     ethr =  2.28E-05,  avg # of iterations =  3.6

     total cpu time spent up to now is        6.7 secs

     total energy              =    -327.45180492 Ry
     Harris-Foulkes estimate   =    -327.45228286 Ry
     estimated scf accuracy    <       0.00664311 Ry

     iteration #  2     ecut=   100.00 Ry     beta= 0.30
     Davidson diagonalization with overlap
     ethr =  2.21E-05,  avg # of iterations =  1.0

     total cpu time spent up to now is        8.1 secs

     total energy              =    -327.45172315 Ry
     Harris-Foulkes estimate   =    -327.45190563 Ry
     estimated scf accuracy    <       0.00287484 Ry

     iteration #  3     ecut=   100.00 Ry     beta= 0.30
     Davidson diagonalization with overlap
     ethr =  9.58E-06,  avg # of iterations =  2.0

     total cpu time spent up to now is        9.7 secs

     total energy              =    -327.45195942 Ry
     Harris-Foulkes estimate   =    -327.45198254 Ry
     estimated scf accuracy    <       0.00015157 Ry

     iteration #  4     ecut=   100.00 Ry     beta= 0.30
     Davidson diagonalization with overlap
     ethr =  5.05E-07,  avg # of iterations =  2.2

     total cpu time spent up to now is       11.3 secs

     total energy              =    -327.45198208 Ry
     Harris-Foulkes estimate   =    -327.45197821 Ry
     estimated scf accuracy    <       0.00002428 Ry

     iteration #  5     ecut=   100.00 Ry     beta= 0.30
     Davidson diagonalization with overlap
     ethr =  8.09E-08,  avg # of iterations =  1.7

     total cpu time spent up to now is       12.7 secs

     total energy              =    -327.45198400 Ry
     Harris-Foulkes estimate   =    -327.45198400 Ry
     estimated scf accuracy    <       0.00000149 Ry

     iteration #  6     ecut=   100.00 Ry     beta= 0.30
     Davidson diagonalization with overlap
     ethr =  4.96E-09,  avg # of iterations =  2.0

     total cpu time spent up to now is       14.6 secs

     total energy              =    -327.45198424 Ry
     Harris-Foulkes estimate   =    -327.45198441 Ry
     estimated scf accuracy    <       0.00000030 Ry

     iteration #  7     ecut=   100.00 Ry     beta= 0.30
     Davidson diagonalization with overlap
     ethr =  1.00E-09,  avg # of iterations =  2.0

     total cpu time spent up to now is       16.5 secs

     total energy              =    -327.45198432 Ry
     Harris-Foulkes estimate   =    -327.45198433 Ry
     estimated scf accuracy    <       0.00000003 Ry

     iteration #  8     ecut=   100.00 Ry     beta= 0.30
     Davidson diagonalization with overlap
     ethr =  1.12E-10,  avg # of iterations =  2.0

     total cpu time spent up to now is       18.4 secs

     End of self-consistent calculation

          k = 0.0000 0.0000 0.0000 (  8383 PWs)   bands (ev):

   -13.4846 -13.4846 -13.3499 -13.3499 -13.3295 -13.1827 -13.1713 -13.1713
   -13.0571 -13.0571  -3.5428   1.7223   7.8320   7.9670   7.9670  11.5054
    12.0096  12.0096  15.0621

          k = 0.0000-0.1502 0.0501 (  8368 PWs)   bands (ev):

   -13.4752 -13.4718 -13.3455 -13.3420 -13.3228 -13.1894 -13.1781 -13.1753
   -13.0711 -13.0671  -3.4042   1.4151   7.8670   7.9529   7.9909  11.2442
    11.4795  11.7075  14.4322

          k = 0.0000-0.3005 0.1002 (  8390 PWs)   bands (ev):

   -13.4501 -13.4353 -13.3352 -13.3200 -13.3026 -13.2117 -13.1973 -13.1838
   -13.1087 -13.0933  -2.9968   0.6323   7.8342   7.9355   8.2046  10.2814
    10.8678  11.0608  14.5441

          k = 0.0000-0.4507 0.1502 (  8389 PWs)   bands (ev):

   -13.4198 -13.3822 -13.3248 -13.2897 -13.2759 -13.2444 -13.2251 -13.1948
   -13.1567 -13.1246  -2.3539  -0.3505   7.8428   7.9455   8.5288   9.4665
    10.1710  10.4950  15.5335

          k = 0.0000 0.6009-0.2003 (  8404 PWs)   bands (ev):

   -13.4046 -13.3380 -13.3195 -13.2974 -13.2642 -13.2496 -13.2239 -13.2197
   -13.1812 -13.1401  -1.7491  -1.0878   7.8746   7.9596   8.9186   8.9478
     9.8258  10.2739  16.7256

          k =-0.1301-0.0751 0.1002 (  8355 PWs)   bands (ev):

   -13.4830 -13.4590 -13.3485 -13.3383 -13.3204 -13.1918 -13.1810 -13.1724
   -13.0859 -13.0578  -3.3688   1.3588   7.5087   7.6615   8.6702  10.3861
    11.8040  12.2595  14.2291

          k =-0.1301-0.2253 0.1502 (  8374 PWs)   bands (ev):

   -13.4706 -13.4275 -13.3412 -13.3255 -13.3037 -13.2096 -13.1909 -13.1790
   -13.1195 -13.0704  -3.0645   0.8235   7.2522   7.4233   8.7661   9.9320
    11.7813  11.9380  13.9081

          k =-0.1301-0.3756 0.2003 (  8387 PWs)   bands (ev):

   -13.4421 -13.3866 -13.3223 -13.3131 -13.2756 -13.2406 -13.2037 -13.1952
   -13.1583 -13.1002  -2.5142  -0.0194   7.1377   7.2591   8.2415  10.2348
    11.1515  11.4994  14.4023

          k =-0.1301 0.6760-0.1502 (  8375 PWs)   bands (ev):

   -13.4183 -13.3443 -13.3148 -13.2922 -13.2716 -13.2467 -13.2335 -13.2054
   -13.1852 -13.1257  -1.8093  -0.9070   6.8739   7.4471   8.1187  10.1585
    10.4946  11.4394  15.7842

          k =-0.1301 0.5258-0.1002 (  8397 PWs)   bands (ev):

   -13.4260 -13.3367 -13.3186 -13.2972 -13.2727 -13.2465 -13.2304 -13.2073
   -13.1839 -13.1183  -1.9867  -0.7072   6.7133   7.8681   8.3569   9.8551
     9.9937  11.8464  15.5163

          k =-0.1301 0.3756-0.0501 (  8393 PWs)   bands (ev):

   -13.4514 -13.3902 -13.3295 -13.3127 -13.2752 -13.2425 -13.2042 -13.1894
   -13.1512 -13.0914  -2.6766   0.1968   6.8387   8.2643   8.5453   9.7257
    10.0892  12.2653  14.4327

          k =-0.1301 0.2253 0.0000 (  8384 PWs)   bands (ev):

   -13.4710 -13.4399 -13.3401 -13.3317 -13.3062 -13.2078 -13.1852 -13.1806
   -13.1049 -13.0707  -3.1682   0.9794   7.2821   8.2411   8.2993  10.3699
    10.7428  12.2450  14.0899

          k =-0.2602-0.1502 0.2003 (  8374 PWs)   bands (ev):

   -13.4789 -13.3996 -13.3505 -13.3096 -13.2945 -13.2182 -13.2048 -13.1710
   -13.1507 -13.0595  -2.8782   0.6770   6.6966   7.0590   7.7773  11.0761
    11.9041  12.8528  13.8646

          k =-0.2602-0.3005 0.2504 (  8368 PWs)   bands (ev):

   -13.4673 -13.3688 -13.3438 -13.2990 -13.2751 -13.2385 -13.2140 -13.1847
   -13.1742 -13.0713  -2.4594   0.1767   6.1976   6.8047   7.1993  11.9065
    12.1821  12.6451  13.7072

          k =-0.2602 0.7511-0.1002 (  8370 PWs)   bands (ev):

   -13.4450 -13.3490 -13.3194 -13.2980 -13.2672 -13.2475 -13.2236 -13.2038
   -13.1863 -13.0964  -1.8624  -0.5557   5.7278   6.8539   7.1858  11.6923
    11.8387  13.1213  14.0586

          k =-0.2602 0.6009-0.0501 (  8368 PWs)   bands (ev):

   -13.4347 -13.3301 -13.3058 -13.2918 -13.2779 -13.2604 -13.2274 -13.2042
   -13.1940 -13.1103  -1.4672  -1.0479   5.6025   7.2599   7.4978  10.9135
    11.1341  13.5611  15.4327

          k =-0.2602 0.4507 0.0000 (  8374 PWs)   bands (ev):

   -13.4436 -13.3367 -13.3160 -13.2998 -13.2845 -13.2406 -13.2304 -13.1982
   -13.1863 -13.1010  -2.1309  -0.4038   5.9713   7.9060   8.0499  10.2336
    10.2797  13.3357  14.7721

          k =-0.3903-0.2253 0.3005 (  8359 PWs)   bands (ev):

   -13.4748 -13.3547 -13.3530 -13.2780 -13.2750 -13.2354 -13.2310 -13.2042
   -13.1679 -13.0613  -2.2175   0.1069   5.4465   6.5706   6.6218  11.7051
    13.5205  13.6915  14.2250

          k =-0.3903 0.8262-0.0501 (  8360 PWs)   bands (ev):

   -13.4657 -13.3506 -13.3449 -13.2777 -13.2614 -13.2480 -13.2288 -13.2129
   -13.1734 -13.0716  -1.8537  -0.2600   5.0010   6.4930   6.5809  11.9698
    13.1410  13.9164  14.7566

          k =-0.3903 0.6760 0.0000 (  8366 PWs)   bands (ev):

   -13.4483 -13.3485 -13.3175 -13.2846 -13.2787 -13.2439 -13.2186 -13.2174
   -13.1847 -13.0933  -1.4607  -0.8170   5.0181   6.7700   6.8425  12.1134
    12.1565  13.9193  14.7467

          k = 0.5204 0.3005-0.4006 (  8330 PWs)   bands (ev):

   -13.4730 -13.3553 -13.3504 -13.2635 -13.2556 -13.2512 -13.2393 -13.2171
   -13.1670 -13.0621  -1.8378  -0.1497   4.7608   6.3612   6.3904  11.6019
    13.8455  14.4497  15.4625

          k = 0.0000 0.0000 0.1502 (  8349 PWs)   bands (ev):

   -13.4756 -13.4756 -13.3461 -13.3461 -13.3257 -13.1861 -13.1744 -13.1744
   -13.0671 -13.0671  -3.4333   1.4335   7.9155   8.0126   8.0126  11.1966
    11.6495  11.6495  14.3972

          k = 0.0000-0.1502 0.2003 (  8362 PWs)   bands (ev):

   -13.4679 -13.4524 -13.3385 -13.3374 -13.3176 -13.1938 -13.1820 -13.1807
   -13.0926 -13.0751  -3.2260   1.0291   7.2043   8.3095   8.5624  10.3240
    10.8241  12.2653  14.4454

          k = 0.0000-0.3005 0.2504 (  8380 PWs)   bands (ev):

   -13.4370 -13.4230 -13.3246 -13.3181 -13.3007 -13.2125 -13.1984 -13.1929
   -13.1231 -13.1076  -2.7609   0.2843   6.7139   8.3000   9.0959   9.3384
    10.3511  12.2506  14.6571

          k = 0.0000 0.7511-0.1002 (  8370 PWs)   bands (ev):

   -13.4057 -13.3885 -13.3201 -13.2910 -13.2746 -13.2435 -13.2226 -13.1981
   -13.1538 -13.1399  -2.0932  -0.5982   6.6342   7.9433   8.4685   9.6488
    10.4405  11.6323  15.8508

          k = 0.0000 0.6009-0.0501 (  8394 PWs)   bands (ev):

   -13.4170 -13.3404 -13.3260 -13.2920 -13.2626 -13.2499 -13.2284 -13.2150
   -13.1797 -13.1266  -1.7960  -0.9274   6.9533   7.5708   7.9029  10.1833
    10.8795  10.9796  15.2776

          k = 0.0000 0.4507 0.0000 (  8396 PWs)   bands (ev):

   -13.4460 -13.3695 -13.3371 -13.2864 -13.2783 -13.2423 -13.2272 -13.1884
   -13.1670 -13.0954  -2.4677  -0.0762   7.3821   7.4399   7.7295  10.3931
    10.8786  11.5024  14.1838

          k = 0.0000 0.3005 0.0501 (  8364 PWs)   bands (ev):

   -13.4719 -13.4210 -13.3457 -13.3168 -13.3000 -13.2142 -13.1995 -13.1751
   -13.1253 -13.0684  -3.0374   0.7942   7.3737   7.4218   8.4882  10.0404
    11.4921  12.1183  13.8383

          k =-0.1301-0.0751 0.2504 (  8368 PWs)   bands (ev):

   -13.4730 -13.4343 -13.3446 -13.3290 -13.3119 -13.1992 -13.1883 -13.1753
   -13.1139 -13.0684  -3.1257   0.8731   7.2365   7.5263   8.9895   9.8261
    11.7541  12.0634  14.0457

          k =-0.1301-0.2253 0.3005 (  8365 PWs)   bands (ev):

   -13.4611 -13.4056 -13.3380 -13.3162 -13.2977 -13.2135 -13.1987 -13.1810
   -13.1450 -13.0806  -2.7725   0.4013   6.5153   7.3946   8.3963  10.4301
    11.4054  12.6841  14.1090

          k =-0.1301 0.8262-0.0501 (  8374 PWs)   bands (ev):

   -13.4350 -13.3826 -13.3194 -13.3112 -13.2750 -13.2366 -13.2054 -13.1969
   -13.1667 -13.1083  -2.2056  -0.2950   6.1315   6.7701   8.5635  10.0354
    11.8394  12.8082  14.4738

          k =-0.1301 0.6760 0.0000 (  8375 PWs)   bands (ev):

   -13.4246 -13.3559 -13.3208 -13.2887 -13.2662 -13.2466 -13.2329 -13.2020
   -13.1793 -13.1198  -1.6294  -0.9359   6.2253   6.3213   8.6457   9.7341
    12.2360  12.4241  15.3801

          k =-0.1301 0.5258 0.0501 (  8384 PWs)   bands (ev):

   -13.4435 -13.3379 -13.3273 -13.2953 -13.2697 -13.2481 -13.2252 -13.2115
   -13.1794 -13.0990  -2.0510  -0.4617   6.2289   6.7851   8.2226  10.1704
    11.5418  12.7404  14.3820

          k =-0.1301 0.3756 0.1002 (  8362 PWs)   bands (ev):

   -13.4632 -13.3807 -13.3391 -13.3061 -13.2754 -13.2417 -13.2090 -13.1828
   -13.1621 -13.0773  -2.6553   0.2821   6.5890   7.5961   7.7949  10.7416
    10.9838  12.6171  13.9258

          k =-0.2602-0.1502 0.3505 (  8363 PWs)   bands (ev):

   -13.4688 -13.3837 -13.3472 -13.3023 -13.2887 -13.2207 -13.2099 -13.1736
   -13.1714 -13.0704  -2.5548   0.2723   6.1020   6.9361   7.3266  11.7108
    12.4113  12.7560  13.8655

          k =-0.2602 0.9014 0.0000 (  8369 PWs)   bands (ev):

   -13.4587 -13.3701 -13.3410 -13.2970 -13.2719 -13.2352 -13.2151 -13.1891
   -13.1768 -13.0810  -2.1447  -0.1144   5.5439   6.2427   7.5353  11.5226
    12.8135  13.4911  14.2582

          k =-0.2602 0.7511 0.0501 (  8358 PWs)   bands (ev):

   -13.4428 -13.3620 -13.3185 -13.3033 -13.2592 -13.2473 -13.2203 -13.2016
   -13.1805 -13.1001  -1.6232  -0.6900   5.3246   5.8925   8.0512  10.7230
    13.2360  14.0534  14.3432

          k =-0.2602 0.6009 0.1002 (  8378 PWs)   bands (ev):

   -13.4402 -13.3394 -13.3103 -13.2895 -13.2796 -13.2517 -13.2254 -13.2088
   -13.1866 -13.1046  -1.4875  -0.9250   5.4527   6.2162   8.4225   9.9970
    12.6753  13.8426  15.0937

          k =-0.2602 0.4507 0.1502 (  8381 PWs)   bands (ev):

   -13.4445 -13.3398 -13.3164 -13.2993 -13.2788 -13.2440 -13.2275 -13.2011
   -13.1870 -13.0985  -2.0579  -0.4465   6.0653   7.0497   8.0112  10.2333
    11.5798  12.9168  14.3972

          k = 0.6505 0.3756-0.3505 (  8365 PWs)   bands (ev):

   -13.4653 -13.3637 -13.3502 -13.2784 -13.2697 -13.2356 -13.2295 -13.2003
   -13.1704 -13.0719  -1.9532  -0.1560   4.9649   6.5659   6.6376  11.8245
    13.3278  13.9846  14.8424

          k = 0.6505 0.2253-0.3005 (  8371 PWs)   bands (ev):

   -13.4586 -13.3580 -13.3424 -13.2799 -13.2591 -13.2458 -13.2317 -13.2043
   -13.1748 -13.0802  -1.7052  -0.4269   4.8879   6.0167   7.2181  11.7375
    12.8455  14.4530  15.0860

          k = 0.6505 0.0751-0.2504 (  8362 PWs)   bands (ev):

   -13.4459 -13.3462 -13.3155 -13.2867 -13.2783 -13.2460 -13.2232 -13.2128
   -13.1842 -13.0970  -1.4733  -0.8427   5.2413   6.0448   7.8787  10.7046
    13.2344  14.0713  14.4097

          k = 0.6505-0.0751-0.2003 (  8390 PWs)   bands (ev):

   -13.4325 -13.3254 -13.3044 -13.2920 -13.2707 -13.2706 -13.2286 -13.2030
   -13.1976 -13.1120  -1.4383  -1.1213   5.8916   6.8193   8.1736   9.8969
    12.0396  12.7769  15.5749

          k = 0.5204 0.3005-0.2504 (  8374 PWs)   bands (ev):

   -13.4648 -13.3509 -13.3489 -13.2686 -13.2568 -13.2508 -13.2386 -13.2142
   -13.1695 -13.0719  -1.8454  -0.2787   5.0297   6.5389   6.5556  11.7518
    13.2860  13.9377  14.6624

          k = 0.5204 0.1502-0.2003 (  8362 PWs)   bands (ev):

   -13.4597 -13.3447 -13.3370 -13.2845 -13.2659 -13.2492 -13.2248 -13.2154
   -13.1753 -13.0793  -1.9922  -0.2814   5.5918   6.2996   7.3007  11.4656
    12.7254  13.3208  14.2094

          k = 0.3903 0.2253-0.1502 (  8367 PWs)   bands (ev):

   -13.4675 -13.3567 -13.3486 -13.2818 -13.2795 -13.2385 -13.2295 -13.1942
   -13.1698 -13.0704  -2.4130   0.1183   6.3456   6.8593   6.9848  11.6998
    12.1173  12.7250  13.6304

          k = 0.0000 0.0000 0.3005 (  8376 PWs)   bands (ev):

   -13.4517 -13.4517 -13.3362 -13.3362 -13.3155 -13.1953 -13.1823 -13.1823
   -13.0935 -13.0935  -3.1226   0.7329   8.0611   8.1531   8.1531  10.6012
    10.9023  10.9023  14.5098

          k = 0.0000-0.1502 0.3505 (  8356 PWs)   bands (ev):

   -13.4488 -13.4245 -13.3298 -13.3275 -13.3078 -13.2027 -13.1898 -13.1871
   -13.1233 -13.0968  -2.8669   0.3729   6.8086   8.5204   9.0096   9.5828
    10.1801  12.3503  14.7100

          k = 0.0000 0.9014 0.0000 (  8362 PWs)   bands (ev):

   -13.4257 -13.4079 -13.3201 -13.3128 -13.2958 -13.2155 -13.2007 -13.1962
   -13.1398 -13.1228  -2.3865  -0.1460   5.9125   8.0147   8.3818  10.1095
    10.5743  13.3911  15.1897

          k = 0.0000 0.7511 0.0501 (  8389 PWs)   bands (ev):

   -13.4167 -13.3864 -13.3269 -13.2886 -13.2729 -13.2406 -13.2221 -13.1932
   -13.1615 -13.1278  -1.8033  -0.7151   5.5836   7.3713   7.6071  10.8377
    11.3307  13.4532  15.1242

          k = 0.0000 0.6009 0.1002 (  8374 PWs)   bands (ev):

   -13.4428 -13.3451 -13.3394 -13.2803 -13.2596 -13.2503 -13.2345 -13.2117
   -13.1752 -13.0974  -1.8433  -0.5919   5.8008   6.9642   7.0940  11.3920
    12.0868  12.8808  13.9282

          k =-0.1301-0.0751 0.4006 (  8359 PWs)   bands (ev):

   -13.4487 -13.4099 -13.3351 -13.3193 -13.3017 -13.2079 -13.1959 -13.1825
   -13.1415 -13.0953  -2.7277   0.1740   7.0610   7.5933   8.5183  10.1359
    11.4254  11.5046  14.3798

          k =-0.1301 0.9765 0.0501 (  8353 PWs)   bands (ev):

   -13.4404 -13.3958 -13.3297 -13.3122 -13.2914 -13.2169 -13.2017 -13.1868
   -13.1577 -13.1044  -2.3750  -0.1322   6.0848   6.9850   8.6754  10.0207
    11.8454  12.9373  14.5605

          k =-0.1301 0.8262 0.1002 (  8359 PWs)   bands (ev):

   -13.4290 -13.3892 -13.3209 -13.3103 -13.2719 -13.2347 -13.2063 -13.1953
   -13.1620 -13.1165  -1.8849  -0.5223   5.4345   6.2476   8.8245   9.8477
    12.7829  13.9152  15.2190

          k =-0.1301 0.6760 0.1502 (  8370 PWs)   bands (ev):

   -13.4417 -13.3613 -13.3326 -13.2847 -13.2612 -13.2458 -13.2326 -13.1988
   -13.1764 -13.1007  -1.6079  -0.7142   5.3126   5.9656   8.0364  10.6589
    13.0547  14.0406  14.4860

          k = 0.7806 0.4507-0.3005 (  8377 PWs)   bands (ev):

   -13.4450 -13.3867 -13.3376 -13.3005 -13.2857 -13.2212 -13.2104 -13.1816
   -13.1705 -13.0973  -2.1829  -0.2367   5.6660   7.0788   7.3587  11.5288
    12.1141  13.2646  14.0855

          k = 0.7806 0.3005-0.2504 (  8375 PWs)   bands (ev):

   -13.4405 -13.3834 -13.3319 -13.3024 -13.2697 -13.2349 -13.2113 -13.1887
   -13.1703 -13.1027  -1.8577  -0.4526   5.2431   6.0448   8.1708  10.6921
    13.1401  14.1106  14.6014

          k = 0.7806 0.1502-0.2003 (  8360 PWs)   bands (ev):

   -13.4409 -13.3687 -13.3137 -13.3104 -13.2572 -13.2464 -13.2185 -13.2009
   -13.1746 -13.1039  -1.4985  -0.7655   5.3469   5.3685   8.7634   9.9648
    14.0033  14.0244  15.1868

          k = 0.6505 0.3756-0.2003 (  8377 PWs)   bands (ev):

   -13.4425 -13.3768 -13.3397 -13.2831 -13.2702 -13.2378 -13.2255 -13.1888
   -13.1729 -13.0983  -1.7488  -0.5318   5.0019   6.8477   6.9853  11.7607
    12.4361  13.9684  14.7680

          k = 0.0000 0.0000 0.4507 (  8355 PWs)   bands (ev):

   -13.4236 -13.4236 -13.3257 -13.3257 -13.3034 -13.2065 -13.1904 -13.1904
   -13.1245 -13.1245  -2.6927  -0.0413   8.1583   8.3711   8.3711  10.1061
    10.2023  10.2023  15.3438

          k = 0.0000 1.0516 0.1002 (  8339 PWs)   bands (ev):

   -13.4222 -13.4096 -13.3213 -13.3206 -13.2991 -13.2104 -13.1942 -13.1934
   -13.1398 -13.1273  -2.4550  -0.2558   6.7177   8.2806   8.6972   9.7375
    10.2255  11.9783  15.4757

          k = 0.0000 0.9014 0.1502 (  8351 PWs)   bands (ev):

   -13.4186 -13.4055 -13.3260 -13.3056 -13.2894 -13.2192 -13.2054 -13.1911
   -13.1483 -13.1277  -2.0741  -0.4415   5.5680   7.4715   7.7333  10.9370
    11.3144  13.6836  15.1371

          k = 0.9107 0.5258-0.2504 (  8335 PWs)   bands (ev):

   -13.4213 -13.4040 -13.3250 -13.3157 -13.2961 -13.2128 -13.1979 -13.1903
   -13.1485 -13.1262  -2.3674  -0.3687   6.8570   7.8686   8.4008  10.0899
    10.7439  11.5705  15.3602

          k = 0.9107 0.3756-0.2003 (  8338 PWs)   bands (ev):

   -13.4225 -13.4023 -13.3224 -13.3149 -13.2883 -13.2188 -13.1992 -13.1927
   -13.1512 -13.1246  -2.1408  -0.4244   5.9609   6.7743   9.0658   9.5366
    12.2463  12.8383  15.2539

          k = 0.0000 0.0000-0.6009 (  8340 PWs)   bands (ev):

   -13.4101 -13.4101 -13.3212 -13.3212 -13.2973 -13.2121 -13.1934 -13.1934
   -13.1398 -13.1398  -2.4345  -0.4316   8.1924   8.5134   8.5134   9.8838
     9.8838   9.9156  16.1236

     the Fermi energy is     9.1209 ev

!    total energy              =    -327.45198433 Ry
     Harris-Foulkes estimate   =    -327.45198433 Ry
     estimated scf accuracy    <          3.4E-09 Ry

     The total energy is the sum of the following terms:

     one-electron contribution =    -111.89300641 Ry
     hartree contribution      =      72.54561348 Ry
     xc contribution           =     -86.08737308 Ry
     ewald contribution        =    -202.01721772 Ry
     smearing contrib. (-TS)   =      -0.00000060 Ry

     convergence has been achieved in   8 iterations

     Forces acting on atoms (cartesian axes, Ry/au):

     atom    1 type  1   force =     0.00000000    0.00000000   -0.00176209
     atom    2 type  1   force =     0.00000000    0.00000000    0.00176209

     Total force =     0.002492     Total SCF correction =     0.000178


     Computing stress (Cartesian axis) and pressure

          total   stress  (Ry/bohr**3)                   (kbar)     P=   -1.18
  -0.00002249  -0.00000000   0.00000000         -3.31     -0.00      0.00
  -0.00000000  -0.00002249  -0.00000000         -0.00     -3.31     -0.00
   0.00000000  -0.00000000   0.00002083          0.00     -0.00      3.06


     Writing output data file Bi_ns.save
 
     init_run     :      0.57s CPU      1.30s WALL (       1 calls)
     electrons    :     14.92s CPU     15.62s WALL (       1 calls)
     forces       :      0.10s CPU      0.12s WALL (       1 calls)
     stress       :      0.28s CPU      0.28s WALL (       1 calls)

     Called by init_run:
     wfcinit      :      0.48s CPU      0.84s WALL (       1 calls)
     potinit      :      0.03s CPU      0.11s WALL (       1 calls)

     Called by electrons:
     c_bands      :     12.67s CPU     13.12s WALL (       9 calls)
     sum_band     :      2.17s CPU      2.26s WALL (       9 calls)
     v_of_rho     :      0.05s CPU      0.07s WALL (       9 calls)
     mix_rho      :      0.01s CPU      0.04s WALL (       9 calls)

     Called by c_bands:
     init_us_2    :      0.17s CPU      0.18s WALL (    1365 calls)
     cegterg      :     11.94s CPU     12.26s WALL (     585 calls)

     Called by sum_band:

     Called by *egterg:
     h_psi        :     10.36s CPU     10.69s WALL (    2000 calls)
     g_psi        :      0.03s CPU      0.05s WALL (    1350 calls)
     cdiaghg      :      1.16s CPU      1.46s WALL (    1870 calls)

     Called by h_psi:
     h_psi:pot    :     10.32s CPU     10.65s WALL (    2000 calls)
     h_psi:calbec :      0.20s CPU      0.20s WALL (    2000 calls)
     vloc_psi     :     10.00s CPU     10.32s WALL (    2000 calls)
     add_vuspsi   :      0.12s CPU      0.12s WALL (    2000 calls)

     General routines
     calbec       :      0.24s CPU      0.24s WALL (    2325 calls)
     fft          :      0.03s CPU      0.13s WALL (     125 calls)
     fftw         :     11.15s CPU     11.47s WALL (   67595 calls)
 
     Parallel routines
     fft_scatt_xy :      0.88s CPU      0.90s WALL (   67720 calls)
     fft_scatt_yz :      4.12s CPU      4.24s WALL (   67720 calls)
 
     PWSCF        :    17.04s CPU        23.09s WALL

 
   This run was terminated on:  17:50:20  23Mar2020            

=------------------------------------------------------------------------------=
   JOB DONE.
=------------------------------------------------------------------------------=
