mpijob CMD    : mpirun -f /tmp/mpiexec.params.k050801.106479
mpijob PARAMS : -d /home/k0508/k050801/qeirreps/ver_5/qeirreps/reference/Si_soc
        r1i6n18 24 omplace -nt 1 "/home/k0508/k050801/qe-6.6/bin/bands.x"

SGI MPT Placement option
--------------------------
omplace -nt 1

Node   MPI
------------
r1i6n18 24


     Program BANDS v.6.6 starts on 29Nov2020 at 21:21:20 

     This program is part of the open-source Quantum ESPRESSO suite
     for quantum simulation of materials; please cite
         "P. Giannozzi et al., J. Phys.:Condens. Matter 21 395502 (2009);
         "P. Giannozzi et al., J. Phys.:Condens. Matter 29 465901 (2017);
          URL http://www.quantum-espresso.org", 
     in publications or presentations arising from this work. More details at
     http://www.quantum-espresso.org/quote

     Parallel version (MPI), running on    24 processors

     MPI processes distributed on     1 nodes
     R & G space division:  proc/nbgrp/npool/nimage =      24
     Fft bands division:     nmany     =       1

     Reading xml data from directory:

     /work/k0508/k050801/Si/band/Si.save/

     IMPORTANT: XC functional enforced from input :
     Exchange-correlation= PBE
                           (   1   4   3   4   0   0   0)
     Any further DFT definition will be discarded
     Please, verify this is what you really want

 
     Parallelization info
     --------------------
     sticks:   dense  smooth     PW     G-vecs:    dense   smooth      PW
     Min          61      61     18                 1553     1553     241
     Max          62      62     19                 1556     1556     244
     Sum        1483    1483    433                37309    37309    5817
 
     Reading collected, re-writing distributed wavefunctions
     high-symmetry point:  0.0000 0.0000 0.0000   x coordinate   0.0000
     high-symmetry point:  0.2652 0.2652-0.2652   x coordinate   0.4593
     high-symmetry point: -0.3536-0.3536 0.3536   x coordinate   0.4593
     high-symmetry point:  0.1768 0.0000 0.0000   x coordinate   1.1881
     high-symmetry point:  0.3536 0.1768-0.1768   x coordinate   1.4943
     high-symmetry point: -0.2652-0.4419 0.4419   x coordinate   1.4943
     high-symmetry point:  0.0000-0.1768 0.1768   x coordinate   1.9536
     high-symmetry point:  0.3536 0.0000 0.0000   x coordinate   2.3866
     high-symmetry point:  0.4419 0.0884-0.0884   x coordinate   2.5397
     high-symmetry point: -0.1768-0.5303 0.5303   x coordinate   2.5397
     high-symmetry point:  0.0000-0.3536 0.3536   x coordinate   2.8459
     high-symmetry point:  0.5303 0.0000 0.0000   x coordinate   3.5748
     high-symmetry point: -0.0884-0.6187 0.6187   x coordinate   4.6464
     high-symmetry point:  0.0000-0.5303 0.5303   x coordinate   4.7995
     high-symmetry point: -0.7071 0.0000 0.0000   x coordinate   4.7995
     high-symmetry point:  0.3536 0.1768 0.0000   x coordinate   4.7995
     high-symmetry point: -0.2652-0.4419 0.6187   x coordinate   4.7995
     high-symmetry point: -0.1768-0.3536 0.5303   x coordinate   4.9526
     high-symmetry point: -0.1768-0.5303 0.7071   x coordinate   5.2026
     high-symmetry point:  0.0000-0.3536 0.5303   x coordinate   5.5088
     high-symmetry point: -0.7071 0.1768 0.0000   x coordinate   5.5088
     high-symmetry point: -0.7071 0.3536 0.0000   x coordinate   5.6856

     Plottable bands (eV) written to file Si.band.gnu
     Bands written to file Si.band

 **************************************************************************

                    xk=(   0.00000,   0.00000,   0.00000  )

     double point group O_h (m-3m) 
     there are 16 classes and  6 irreducible representations
     the character table:

       E     -E    8C3   -8C3   3C2  6C4   -6C4   6C2' i     -i    8S6   -8S6 
                               -3C2              -6C2'                        
G_6+   2.00 -2.00  1.00 -1.00  0.00  1.41 -1.41  0.00  2.00 -2.00  1.00 -1.00
G_7+   2.00 -2.00  1.00 -1.00  0.00 -1.41  1.41  0.00  2.00 -2.00  1.00 -1.00
G_8+   4.00 -4.00 -1.00  1.00  0.00  0.00  0.00  0.00  4.00 -4.00 -1.00  1.00
G_6-   2.00 -2.00  1.00 -1.00  0.00  1.41 -1.41  0.00 -2.00  2.00 -1.00  1.00
G_7-   2.00 -2.00  1.00 -1.00  0.00 -1.41  1.41  0.00 -2.00  2.00 -1.00  1.00
G_8-   4.00 -4.00 -1.00  1.00  0.00  0.00  0.00  0.00 -4.00  4.00  1.00 -1.00

        3s_h 6S4   -6S4   6s_d
       -3s_h             -6s_d
G_6+   0.00  1.41 -1.41  0.00
G_7+   0.00 -1.41  1.41  0.00
G_8+   0.00  0.00  0.00  0.00
G_6-   0.00 -1.41  1.41  0.00
G_7-   0.00  1.41 -1.41  0.00
G_8-   0.00  0.00  0.00  0.00

     the symmetry operations in each class and the name of the first element:

     E             1
                                                                 
     -E           -1
                                                                 
     8C3          17   19   20   18   24   21   22   23
                                                                 
     -8C3        -17  -19  -20  -18  -24  -21  -22  -23
                                                                 
      3C2 -3C2     2   -2    4   -4    3   -3
                                                                 
     6C4           7    8   15   16   12   11
                                                                 
     -6C4         -7   -8  -15  -16  -12  -11
                                                                 
      6C2'-6C2'    5   -5   -6    6   14  -13  -14   13   10   -9  -10    9
                                                                 
     i            25
                                                                 
     -i          -25
                                                                 
     8S6          41   43   44   42   48   45   46   47
                                                                 
     -8S6        -41  -43  -44  -42  -48  -45  -46  -47
                                                                 
      3s_h-3s_h   26  -26   28  -28   27  -27
                                                                 
     6S4          31   32   39   40   36   35
                                                                 
     -6S4        -31  -32  -39  -40  -36  -35
                                                                 
      6s_d-6s_d   29  -29  -30   30   38  -37  -38   37   34  -33  -34   33
                                                                 

     Band symmetry, O_h (m-3m)  double point group:

     e(  1 -  2) =     -5.80813  eV     2   --> G_6+           
     e(  3 -  4) =      5.97861  eV     2   --> G_7+           
     e(  5 -  8) =      6.02592  eV     4   --> G_8+           
     e(  9 - 10) =      8.53350  eV     2   --> G_6-           
     e( 11 - 14) =      8.56819  eV     4   --> G_8-           
     e( 15 - 16) =      9.10795  eV     2   --> G_7-           

 **************************************************************************

 **************************************************************************

                    xk=(   0.08839,   0.08839,  -0.08839  )

     double point group C_3v (3m)  
     there are  6 classes and  3 irreducible representations
     the character table:

       E     -E    2C3   -2C3  3s_v  -3s_v
                                          
G_4    2.00 -2.00  1.00 -1.00  0.00  0.00
G_5    1.00 -1.00 -1.00  1.00  0.00  0.00
G_6    1.00 -1.00 -1.00  1.00  0.00  0.00

     imaginary part

       E     -E    2C3   -2C3  3s_v  -3s_v
                                          
G_4    0.00  0.00  0.00  0.00  0.00  0.00
G_5    0.00  0.00  0.00  0.00  1.00 -1.00
G_6    0.00  0.00  0.00  0.00 -1.00  1.00

     the symmetry operations in each class and the name of the first element:

     E             1
                                                                 
     -E           -1
                                                                 
     2C3           2    3
                                                                 
     -2C3         -2   -3
                                                                 
     3s_v          4   -5    6
                                                                 
     3s_v          5   -6   -4
                                                                 

     Band symmetry, C_3v (3m)   double point group:

     e(  1 -  2) =     -5.60784  eV     2   --> G_4   L_6      
     e(  3 -  4) =      4.41397  eV     2   --> G_4   L_6      
     e(  5 -  6) =      5.71111  eV     2   --> G_4   L_6      
     e(  7 -  8) =      5.74202  eV     2   --> G_5   L_4      
     e(  7 -  8) =      5.74202  eV     2   --> G_6   L_5      
     e(  9 - 10) =      8.43808  eV     2   --> G_4   L_6      
     e( 11 - 12) =      8.96122  eV     2   --> G_4   L_6      
     e( 13 - 14) =      8.98479  eV     2   --> G_5   L_4      
     e( 13 - 14) =      8.98479  eV     2   --> G_6   L_5      
     e( 15 - 16) =     10.51812  eV     2   --> G_4   L_6      

 **************************************************************************

 **************************************************************************

                    xk=(   0.17678,   0.17678,  -0.17678  )

     Band symmetry, C_3v (3m)   double point group:

     e(  1 -  2) =     -5.02395  eV     2   --> G_4   L_6      
     e(  3 -  4) =      2.11743  eV     2   --> G_4   L_6      
     e(  5 -  6) =      5.24708  eV     2   --> G_4   L_6      
     e(  7 -  8) =      5.27792  eV     2   --> G_5   L_4      
     e(  7 -  8) =      5.27792  eV     2   --> G_6   L_5      
     e(  9 - 10) =      7.95459  eV     2   --> G_4   L_6      
     e( 11 - 12) =      9.48157  eV     2   --> G_4   L_6      
     e( 13 - 14) =      9.50304  eV     2   --> G_5   L_4      
     e( 13 - 14) =      9.50304  eV     2   --> G_6   L_5      
     e( 15 - 16) =     12.74026  eV     2   --> G_4   L_6      

 **************************************************************************

 **************************************************************************

                    xk=(   0.26517,   0.26517,  -0.26517  )

     Band symmetry, C_3v (3m)   double point group:

     e(  1 -  2) =     -4.15023  eV     2   --> G_4   L_6      
     e(  3 -  4) =      0.13347  eV     2   --> G_4   L_6      
     e(  5 -  6) =      4.92346  eV     2   --> G_4   L_6      
     e(  7 -  8) =      4.95456  eV     2   --> G_5   L_4      
     e(  7 -  8) =      4.95456  eV     2   --> G_6   L_5      
     e(  9 - 10) =      7.59044  eV     2   --> G_4   L_6      
     e( 11 - 12) =      9.44973  eV     2   --> G_4   L_6      
     e( 13 - 14) =      9.46607  eV     2   --> G_5   L_4      
     e( 13 - 14) =      9.46607  eV     2   --> G_6   L_5      
     e( 15 - 16) =     13.84377  eV     2   --> G_4   L_6      

 **************************************************************************

 **************************************************************************

                    xk=(  -0.35355,  -0.35355,   0.35355  )

     double point group D_3d (-3m) 
     there are 12 classes and  6 irreducible representations
     the character table:

       E     -E    2C3   -2C3  3C2'  -3C2' i     -i    2S6   -2S6  3s_v  -3s_v
                                                                              
G_4+   2.00 -2.00  1.00 -1.00  0.00  0.00  2.00 -2.00  1.00 -1.00  0.00  0.00
G_5+   1.00 -1.00 -1.00  1.00  0.00  0.00  1.00 -1.00 -1.00  1.00  0.00  0.00
G_6+   1.00 -1.00 -1.00  1.00  0.00  0.00  1.00 -1.00 -1.00  1.00  0.00  0.00
G_4-   2.00 -2.00  1.00 -1.00  0.00  0.00 -2.00  2.00 -1.00  1.00  0.00  0.00
G_5-   1.00 -1.00 -1.00  1.00  0.00  0.00 -1.00  1.00  1.00 -1.00  0.00  0.00
G_6-   1.00 -1.00 -1.00  1.00  0.00  0.00 -1.00  1.00  1.00 -1.00  0.00  0.00

     imaginary part

       E     -E    2C3   -2C3  3C2'  -3C2' i     -i    2S6   -2S6  3s_v  -3s_v
                                                                              
G_4+   0.00  0.00  0.00  0.00  0.00  0.00  0.00  0.00  0.00  0.00  0.00  0.00
G_5+   0.00  0.00  0.00  0.00  1.00 -1.00  0.00  0.00  0.00  0.00  1.00 -1.00
G_6+   0.00  0.00  0.00  0.00 -1.00  1.00  0.00  0.00  0.00  0.00 -1.00  1.00
G_4-   0.00  0.00  0.00  0.00  0.00  0.00  0.00  0.00  0.00  0.00  0.00  0.00
G_5-   0.00  0.00  0.00  0.00  1.00 -1.00  0.00  0.00  0.00  0.00 -1.00  1.00
G_6-   0.00  0.00  0.00  0.00 -1.00  1.00  0.00  0.00  0.00  0.00  1.00 -1.00

     the symmetry operations in each class and the name of the first element:

     E             1
                                                                 
     -E           -1
                                                                 
     2C3           5    6
                                                                 
     -2C3         -5   -6
                                                                 
     3C2'          2    4   -3
                                                                 
     3C2'          3   -4   -2
                                                                 
     i             7
                                                                 
     -i           -7
                                                                 
     2S6          11   12
                                                                 
     -2S6        -11  -12
                                                                 
     3s_v          8   10   -9
                                                                 
     3s_v          9  -10   -8
                                                                 

     Band symmetry, D_3d (-3m)  double point group:

     e(  1 -  2) =     -3.53161  eV     2   --> G_4-  L_6-     
     e(  3 -  4) =     -0.86399  eV     2   --> G_4+  L_6+     
     e(  5 -  6) =      4.81252  eV     2   --> G_4-  L_6-     
     e(  7 -  8) =      4.84377  eV     2   --> G_5-  L_4-     
     e(  7 -  8) =      4.84377  eV     2   --> G_6-  L_5-     
     e(  9 - 10) =      7.46241  eV     2   --> G_4+  L_6+     
     e( 11 - 12) =      9.34791  eV     2   --> G_4+  L_6+     
     e( 13 - 14) =      9.36248  eV     2   --> G_5+  L_4+     
     e( 13 - 14) =      9.36248  eV     2   --> G_6+  L_5+     
     e( 15 - 16) =     13.71152  eV     2   --> G_4-  L_6-     

 **************************************************************************

 **************************************************************************

                    xk=(   0.17678,   0.00000,   0.00000  )

     double point group C_4v (4mm) 
     there are  7 classes and  2 irreducible representations
     the character table:

       E     -E    2C4   -2C4   C2    2s_v  2s_d
                               -C2   -2s_v -2s_d
G_6    2.00 -2.00  1.41 -1.41  0.00  0.00  0.00
G_7    2.00 -2.00 -1.41  1.41  0.00  0.00  0.00

     the symmetry operations in each class and the name of the first element:

     E             1
                                                                 
     -E           -1
                                                                 
     2C4           3    4
                                                                 
     -2C4         -3   -4
                                                                 
      C2  -C2      2   -2
                                                                 
      2s_v-2s_v    5   -5    6   -6
                                                                 
      2s_d-2s_d    7   -7   -8    8
                                                                 

     Band symmetry, C_4v (4mm)  double point group:

     e(  1 -  2) =     -5.54031  eV     2   --> G_6   D_6      
     e(  3 -  4) =      4.65119  eV     2   --> G_7   D_7      
     e(  5 -  6) =      5.21286  eV     2   --> G_7   D_7      
     e(  7 -  8) =      5.22994  eV     2   --> G_6   D_6      
     e(  9 - 10) =      8.01739  eV     2   --> G_6   D_6      
     e( 11 - 12) =      9.66952  eV     2   --> G_6   D_6      
     e( 13 - 14) =      9.67773  eV     2   --> G_7   D_7      
     e( 15 - 16) =     10.20310  eV     2   --> G_7   D_7      

 **************************************************************************

 **************************************************************************

                    xk=(   0.26517,   0.08839,  -0.08839  )

     double point group C_s (m)    
     there are  4 classes and  2 irreducible representations
     the character table:

       E     -E    s     -s   
                              
G_3    1.00 -1.00  0.00  0.00
G_4    1.00 -1.00  0.00  0.00

     imaginary part

       E     -E    s     -s   
                              
G_3    0.00  0.00  1.00 -1.00
G_4    0.00  0.00 -1.00  1.00

     the symmetry operations in each class and the name of the first element:

     E             1
                                                                 
     -E           -1
                                                                 
     s             2
                                                                 
     -s           -2
                                                                 

     Band symmetry, C_s (m)     double point group:

     e(  1 -  2) =     -5.08064  eV     2   --> G_3            
     e(  1 -  2) =     -5.08064  eV     2   --> G_4            
     e(  3 -  4) =      2.79738  eV     2   --> G_3            
     e(  3 -  4) =      2.79738  eV     2   --> G_4            
     e(  5 -  6) =      4.71616  eV     2   --> G_3            
     e(  5 -  6) =      4.71616  eV     2   --> G_4            
     e(  7 -  8) =      4.78278  eV     2   --> G_3            
     e(  7 -  8) =      4.78278  eV     2   --> G_4            
     e(  9 - 10) =      8.14858  eV     2   --> G_3            
     e(  9 - 10) =      8.14858  eV     2   --> G_4            
     e( 11 - 12) =      9.61874  eV     2   --> G_3            
     e( 11 - 12) =      9.61874  eV     2   --> G_4            
     e( 13 - 14) =     10.43003  eV     2   --> G_3            
     e( 13 - 14) =     10.43003  eV     2   --> G_4            
     e( 15 - 16) =     10.74769  eV     2   --> G_3            
     e( 15 - 16) =     10.74769  eV     2   --> G_4            

 **************************************************************************

 **************************************************************************

                    xk=(   0.35355,   0.17678,  -0.17678  )

     Band symmetry, C_s (m)     double point group:

     e(  1 -  2) =     -4.28280  eV     2   --> G_3            
     e(  1 -  2) =     -4.28280  eV     2   --> G_4            
     e(  3 -  4) =      0.77590  eV     2   --> G_3            
     e(  3 -  4) =      0.77590  eV     2   --> G_4            
     e(  5 -  6) =      4.19634  eV     2   --> G_3            
     e(  5 -  6) =      4.19634  eV     2   --> G_4            
     e(  7 -  8) =      4.45312  eV     2   --> G_3            
     e(  7 -  8) =      4.45312  eV     2   --> G_4            
     e(  9 - 10) =      8.23082  eV     2   --> G_3            
     e(  9 - 10) =      8.23082  eV     2   --> G_4            
     e( 11 - 12) =      9.59218  eV     2   --> G_3            
     e( 11 - 12) =      9.59218  eV     2   --> G_4            
     e( 13 - 14) =     10.44634  eV     2   --> G_3            
     e( 13 - 14) =     10.44634  eV     2   --> G_4            
     e( 15 - 16) =     11.44787  eV     2   --> G_3            
     e( 15 - 16) =     11.44787  eV     2   --> G_4            

 **************************************************************************

 **************************************************************************

                    xk=(  -0.26517,  -0.44194,   0.44194  )

     Band symmetry, C_s (m)     double point group:

     e(  1 -  2) =     -3.44467  eV     2   --> G_3            
     e(  1 -  2) =     -3.44467  eV     2   --> G_4            
     e(  3 -  4) =     -0.65375  eV     2   --> G_3            
     e(  3 -  4) =     -0.65375  eV     2   --> G_4            
     e(  5 -  6) =      3.75943  eV     2   --> G_3            
     e(  5 -  6) =      3.75943  eV     2   --> G_4            
     e(  7 -  8) =      4.47466  eV     2   --> G_3            
     e(  7 -  8) =      4.47466  eV     2   --> G_4            
     e(  9 - 10) =      8.16409  eV     2   --> G_3            
     e(  9 - 10) =      8.16409  eV     2   --> G_4            
     e( 11 - 12) =      9.49286  eV     2   --> G_3            
     e( 11 - 12) =      9.49286  eV     2   --> G_4            
     e( 13 - 14) =     10.09925  eV     2   --> G_3            
     e( 13 - 14) =     10.09925  eV     2   --> G_4            
     e( 15 - 16) =     13.30842  eV     2   --> G_3            
     e( 15 - 16) =     13.30842  eV     2   --> G_4            

 **************************************************************************

 **************************************************************************

                    xk=(  -0.17678,  -0.35355,   0.35355  )

     Band symmetry, C_s (m)     double point group:

     e(  1 -  2) =     -3.68168  eV     2   --> G_3            
     e(  1 -  2) =     -3.68168  eV     2   --> G_4            
     e(  3 -  4) =     -0.29278  eV     2   --> G_3            
     e(  3 -  4) =     -0.29278  eV     2   --> G_4            
     e(  5 -  6) =      3.58445  eV     2   --> G_3            
     e(  5 -  6) =      3.58445  eV     2   --> G_4            
     e(  7 -  8) =      4.76411  eV     2   --> G_3            
     e(  7 -  8) =      4.76411  eV     2   --> G_4            
     e(  9 - 10) =      8.31137  eV     2   --> G_3            
     e(  9 - 10) =      8.31137  eV     2   --> G_4            
     e( 11 - 12) =      9.61418  eV     2   --> G_3            
     e( 11 - 12) =      9.61418  eV     2   --> G_4            
     e( 13 - 14) =      9.86873  eV     2   --> G_3            
     e( 13 - 14) =      9.86873  eV     2   --> G_4            
     e( 15 - 16) =     13.82722  eV     2   --> G_3            
     e( 15 - 16) =     13.82722  eV     2   --> G_4            

 **************************************************************************

 **************************************************************************

                    xk=(  -0.08839,  -0.26517,   0.26517  )

     Band symmetry, C_s (m)     double point group:

     e(  1 -  2) =     -4.58253  eV     2   --> G_3            
     e(  1 -  2) =     -4.58253  eV     2   --> G_4            
     e(  3 -  4) =      1.42197  eV     2   --> G_3            
     e(  3 -  4) =      1.42197  eV     2   --> G_4            
     e(  5 -  6) =      3.73917  eV     2   --> G_3            
     e(  5 -  6) =      3.73917  eV     2   --> G_4            
     e(  7 -  8) =      5.24606  eV     2   --> G_3            
     e(  7 -  8) =      5.24606  eV     2   --> G_4            
     e(  9 - 10) =      8.65232  eV     2   --> G_3            
     e(  9 - 10) =      8.65232  eV     2   --> G_4            
     e( 11 - 12) =      9.66255  eV     2   --> G_3            
     e( 11 - 12) =      9.66255  eV     2   --> G_4            
     e( 13 - 14) =      9.84279  eV     2   --> G_3            
     e( 13 - 14) =      9.84279  eV     2   --> G_4            
     e( 15 - 16) =     12.21061  eV     2   --> G_3            
     e( 15 - 16) =     12.21061  eV     2   --> G_4            

 **************************************************************************

 **************************************************************************

                    xk=(   0.00000,  -0.17678,   0.17678  )

     double point group C_2v (mm2) 
     there are  5 classes and  1 irreducible representations
     the character table:

       E     -E     C2    s_v   s_v'
                   -C2   -s_v  -s_v'
G_5    2.00 -2.00  0.00  0.00  0.00

     the symmetry operations in each class and the name of the first element:

     E             1
                                                                 
     -E           -1
                                                                 
      C2  -C2      2   -2
                                                                 
      s_v -s_v     3   -3
                                                                 
      s_v'-s_v'    4   -4
                                                                 

     Band symmetry, C_2v (mm2)  double point group:

     e(  1 -  2) =     -5.27806  eV     2   --> G_5  D_5       
     e(  3 -  4) =      3.32877  eV     2   --> G_5  D_5       
     e(  5 -  6) =      4.41747  eV     2   --> G_5  D_5       
     e(  7 -  8) =      5.71902  eV     2   --> G_5  D_5       
     e(  9 - 10) =      8.96095  eV     2   --> G_5  D_5       
     e( 11 - 12) =      9.10937  eV     2   --> G_5  D_5       
     e( 13 - 14) =      9.33742  eV     2   --> G_5  D_5       
     e( 15 - 16) =     11.42355  eV     2   --> G_5  D_5       

 **************************************************************************

 **************************************************************************

                    xk=(   0.35355,   0.00000,   0.00000  )

     double point group C_4v (4mm) 
     there are  7 classes and  2 irreducible representations
     the character table:

       E     -E    2C4   -2C4   C2    2s_v  2s_d
                               -C2   -2s_v -2s_d
G_6    2.00 -2.00  1.41 -1.41  0.00  0.00  0.00
G_7    2.00 -2.00 -1.41  1.41  0.00  0.00  0.00

     the symmetry operations in each class and the name of the first element:

     E             1
                                                                 
     -E           -1
                                                                 
     2C4           3    4
                                                                 
     -2C4         -3   -4
                                                                 
      C2  -C2      2   -2
                                                                 
      2s_v-2s_v    5   -5    6   -6
                                                                 
      2s_d-2s_d    7   -7   -8    8
                                                                 

     Band symmetry, C_4v (4mm)  double point group:

     e(  1 -  2) =     -4.74653  eV     2   --> G_6   D_6      
     e(  3 -  4) =      2.48337  eV     2   --> G_7   D_7      
     e(  5 -  6) =      4.15343  eV     2   --> G_7   D_7      
     e(  7 -  8) =      4.16188  eV     2   --> G_6   D_6      
     e(  9 - 10) =      7.15611  eV     2   --> G_6   D_6      
     e( 11 - 12) =      9.14182  eV     2   --> G_7   D_7      
     e( 13 - 14) =     11.69053  eV     2   --> G_7   D_7      
     e( 15 - 16) =     11.69272  eV     2   --> G_6   D_6      

 **************************************************************************

 **************************************************************************

                    xk=(   0.44194,   0.08839,  -0.08839  )

     double point group C_s (m)    
     there are  4 classes and  2 irreducible representations
     the character table:

       E     -E    s     -s   
                              
G_3    1.00 -1.00  0.00  0.00
G_4    1.00 -1.00  0.00  0.00

     imaginary part

       E     -E    s     -s   
                              
G_3    0.00  0.00  1.00 -1.00
G_4    0.00  0.00 -1.00  1.00

     the symmetry operations in each class and the name of the first element:

     E             1
                                                                 
     -E           -1
                                                                 
     s             2
                                                                 
     -s           -2
                                                                 

     Band symmetry, C_s (m)     double point group:

     e(  1 -  2) =     -4.05062  eV     2   --> G_3            
     e(  1 -  2) =     -4.05062  eV     2   --> G_4            
     e(  3 -  4) =      1.08697  eV     2   --> G_3            
     e(  3 -  4) =      1.08697  eV     2   --> G_4            
     e(  5 -  6) =      3.39121  eV     2   --> G_3            
     e(  5 -  6) =      3.39121  eV     2   --> G_4            
     e(  7 -  8) =      3.84435  eV     2   --> G_3            
     e(  7 -  8) =      3.84435  eV     2   --> G_4            
     e(  9 - 10) =      7.37674  eV     2   --> G_3            
     e(  9 - 10) =      7.37674  eV     2   --> G_4            
     e( 11 - 12) =      8.91034  eV     2   --> G_3            
     e( 11 - 12) =      8.91034  eV     2   --> G_4            
     e( 13 - 14) =     11.90863  eV     2   --> G_3            
     e( 13 - 14) =     11.90863  eV     2   --> G_4            
     e( 15 - 16) =     12.21032  eV     2   --> G_3            
     e( 15 - 16) =     12.21032  eV     2   --> G_4            

 **************************************************************************

 **************************************************************************

                    xk=(  -0.17678,  -0.53033,   0.53033  )

     Band symmetry, C_s (m)     double point group:

     e(  1 -  2) =     -3.14650  eV     2   --> G_3            
     e(  1 -  2) =     -3.14650  eV     2   --> G_4            
     e(  3 -  4) =     -0.32039  eV     2   --> G_3            
     e(  3 -  4) =     -0.32039  eV     2   --> G_4            
     e(  5 -  6) =      2.54318  eV     2   --> G_3            
     e(  5 -  6) =      2.54318  eV     2   --> G_4            
     e(  7 -  8) =      3.84616  eV     2   --> G_3            
     e(  7 -  8) =      3.84616  eV     2   --> G_4            
     e(  9 - 10) =      7.54805  eV     2   --> G_3            
     e(  9 - 10) =      7.54805  eV     2   --> G_4            
     e( 11 - 12) =     10.44051  eV     2   --> G_3            
     e( 11 - 12) =     10.44051  eV     2   --> G_4            
     e( 13 - 14) =     11.64405  eV     2   --> G_3            
     e( 13 - 14) =     11.64405  eV     2   --> G_4            
     e( 15 - 16) =     11.88179  eV     2   --> G_3            
     e( 15 - 16) =     11.88179  eV     2   --> G_4            

 **************************************************************************

 **************************************************************************

                    xk=(  -0.08839,  -0.44194,   0.44194  )

     Band symmetry, C_s (m)     double point group:

     e(  1 -  2) =     -2.94957  eV     2   --> G_3            
     e(  1 -  2) =     -2.94957  eV     2   --> G_4            
     e(  3 -  4) =     -0.57007  eV     2   --> G_3            
     e(  3 -  4) =     -0.57007  eV     2   --> G_4            
     e(  5 -  6) =      2.09594  eV     2   --> G_3            
     e(  5 -  6) =      2.09594  eV     2   --> G_4            
     e(  7 -  8) =      4.15756  eV     2   --> G_3            
     e(  7 -  8) =      4.15756  eV     2   --> G_4            
     e(  9 - 10) =      7.86118  eV     2   --> G_3            
     e(  9 - 10) =      7.86118  eV     2   --> G_4            
     e( 11 - 12) =     11.40760  eV     2   --> G_3            
     e( 11 - 12) =     11.40760  eV     2   --> G_4            
     e( 13 - 14) =     11.44582  eV     2   --> G_3            
     e( 13 - 14) =     11.44582  eV     2   --> G_4            
     e( 15 - 15) =     12.88558  eV     1   -->   ?
     e( 16 - 16) =     12.88569  eV     1   -->   ?

 **************************************************************************

 **************************************************************************

                    xk=(   0.00000,  -0.35355,   0.35355  )

     double point group C_2v (mm2) 
     there are  5 classes and  1 irreducible representations
     the character table:

       E     -E     C2    s_v   s_v'
                   -C2   -s_v  -s_v'
G_5    2.00 -2.00  0.00  0.00  0.00

     the symmetry operations in each class and the name of the first element:

     E             1
                                                                 
     -E           -1
                                                                 
      C2  -C2      2   -2
                                                                 
      s_v -s_v     3   -3
                                                                 
      s_v'-s_v'    4   -4
                                                                 

     Band symmetry, C_2v (mm2)  double point group:

     e(  1 -  2) =     -3.80582  eV     2   --> G_5  D_5       
     e(  3 -  4) =      0.56331  eV     2   --> G_5  D_5       
     e(  5 -  6) =      2.33693  eV     2   --> G_5  D_5       
     e(  7 -  8) =      4.70428  eV     2   --> G_5  D_5       
     e(  9 - 10) =      8.44019  eV     2   --> G_5  D_5       
     e( 11 - 12) =     10.74772  eV     2   --> G_5  D_5       
     e( 13 - 14) =     11.09390  eV     2   --> G_5  D_5       
     e( 15 - 16) =     12.03498  eV     2   --> G_5  D_5       

 **************************************************************************

 **************************************************************************

                    xk=(   0.53033,   0.00000,   0.00000  )

     double point group C_4v (4mm) 
     there are  7 classes and  2 irreducible representations
     the character table:

       E     -E    2C4   -2C4   C2    2s_v  2s_d
                               -C2   -2s_v -2s_d
G_6    2.00 -2.00  1.41 -1.41  0.00  0.00  0.00
G_7    2.00 -2.00 -1.41  1.41  0.00  0.00  0.00

     the symmetry operations in each class and the name of the first element:

     E             1
                                                                 
     -E           -1
                                                                 
     2C4           3    4
                                                                 
     -2C4         -3   -4
                                                                 
      C2  -C2      2   -2
                                                                 
      2s_v-2s_v    5   -5    6   -6
                                                                 
      2s_d-2s_d    7   -7   -8    8
                                                                 

     Band symmetry, C_4v (4mm)  double point group:

     e(  1 -  2) =     -3.45908  eV     2   --> G_6   D_6      
     e(  3 -  4) =      0.29005  eV     2   --> G_7   D_7      
     e(  5 -  6) =      3.45111  eV     2   --> G_7   D_7      
     e(  7 -  8) =      3.45475  eV     2   --> G_6   D_6      
     e(  9 - 10) =      6.65691  eV     2   --> G_6   D_6      
     e( 11 - 12) =      7.58424  eV     2   --> G_7   D_7      
     e( 13 - 14) =     13.93251  eV     2   --> G_7   D_7      
     e( 15 - 16) =     13.94015  eV     2   --> G_6   D_6      

 **************************************************************************

 **************************************************************************

                    xk=(  -0.08839,  -0.61872,   0.61872  )

     double point group C_s (m)    
     there are  4 classes and  2 irreducible representations
     the character table:

       E     -E    s     -s   
                              
G_3    1.00 -1.00  0.00  0.00
G_4    1.00 -1.00  0.00  0.00

     imaginary part

       E     -E    s     -s   
                              
G_3    0.00  0.00  1.00 -1.00
G_4    0.00  0.00 -1.00  1.00

     the symmetry operations in each class and the name of the first element:

     E             1
                                                                 
     -E           -1
                                                                 
     s             2
                                                                 
     -s           -2
                                                                 

     Band symmetry, C_s (m)     double point group:

     e(  1 -  2) =     -2.58047  eV     2   --> G_3            
     e(  1 -  2) =     -2.58047  eV     2   --> G_4            
     e(  3 -  4) =     -0.77595  eV     2   --> G_3            
     e(  3 -  4) =     -0.77595  eV     2   --> G_4            
     e(  5 -  6) =      2.64775  eV     2   --> G_3            
     e(  5 -  6) =      2.64775  eV     2   --> G_4            
     e(  7 -  8) =      3.37765  eV     2   --> G_3            
     e(  7 -  8) =      3.37765  eV     2   --> G_4            
     e(  9 - 10) =      6.93826  eV     2   --> G_3            
     e(  9 - 10) =      6.93826  eV     2   --> G_4            
     e( 11 - 12) =      7.99268  eV     2   --> G_3            
     e( 11 - 12) =      7.99268  eV     2   --> G_4            
     e( 13 - 14) =     14.17362  eV     2   --> G_3            
     e( 13 - 14) =     14.17362  eV     2   --> G_4            
     e( 15 - 16) =     14.22686  eV     2   --> G_3            
     e( 15 - 16) =     14.22686  eV     2   --> G_4            

 **************************************************************************

 **************************************************************************

                    xk=(   0.00000,  -0.53033,   0.53033  )

     double point group C_2v (mm2) 
     there are  5 classes and  1 irreducible representations
     the character table:

       E     -E     C2    s_v   s_v'
                   -C2   -s_v  -s_v'
G_5    2.00 -2.00  0.00  0.00  0.00

     the symmetry operations in each class and the name of the first element:

     E             1
                                                                 
     -E           -1
                                                                 
      C2  -C2      2   -2
                                                                 
      s_v -s_v     3   -3
                                                                 
      s_v'-s_v'    4   -4
                                                                 

     Band symmetry, C_2v (mm2)  double point group:

     e(  1 -  2) =     -2.15775  eV     2   --> G_5  D_5       
     e(  3 -  4) =     -1.16081  eV     2   --> G_5  D_5       
     e(  5 -  6) =      1.80598  eV     2   --> G_5  D_5       
     e(  7 -  8) =      3.63000  eV     2   --> G_5  D_5       
     e(  9 - 10) =      7.24115  eV     2   --> G_5  D_5       
     e( 11 - 12) =     10.12016  eV     2   --> G_5  D_5       
     e( 13 - 14) =     13.37623  eV     2   --> G_5  D_5       
     e( 15 - 15) =     14.06580  eV     1   -->   ?
     e( 16 - 16) =     14.06887  eV     1   -->   ?

 **************************************************************************

 **************************************************************************

                    xk=(  -0.70711,   0.00000,   0.00000  )

     zone border point and non-symmorphic group 
     symmetry decomposition not available

 **************************************************************************

 **************************************************************************

                    xk=(   0.35355,   0.17678,   0.00000  )

     double point group C_s (m)    
     there are  4 classes and  2 irreducible representations
     the character table:

       E     -E    s     -s   
                              
G_3    1.00 -1.00  0.00  0.00
G_4    1.00 -1.00  0.00  0.00

     imaginary part

       E     -E    s     -s   
                              
G_3    0.00  0.00  1.00 -1.00
G_4    0.00  0.00 -1.00  1.00

     the symmetry operations in each class and the name of the first element:

     E             1
                                                                 
     -E           -1
                                                                 
     s             2
                                                                 
     -s           -2
                                                                 

     Band symmetry, C_s (m)     double point group:

     e(  1 -  2) =     -4.50442  eV     2   --> G_3            
     e(  1 -  2) =     -4.50442  eV     2   --> G_4            
     e(  3 -  4) =      1.73419  eV     2   --> G_3            
     e(  3 -  4) =      1.73419  eV     2   --> G_4            
     e(  5 -  6) =      3.35391  eV     2   --> G_3            
     e(  5 -  6) =      3.35391  eV     2   --> G_4            
     e(  7 -  8) =      4.60632  eV     2   --> G_3            
     e(  7 -  8) =      4.60632  eV     2   --> G_4            
     e(  9 - 10) =      8.44775  eV     2   --> G_3            
     e(  9 - 10) =      8.44775  eV     2   --> G_4            
     e( 11 - 12) =      9.82191  eV     2   --> G_3            
     e( 11 - 12) =      9.82191  eV     2   --> G_4            
     e( 13 - 14) =     10.21538  eV     2   --> G_3            
     e( 13 - 14) =     10.21538  eV     2   --> G_4            
     e( 15 - 16) =     11.44430  eV     2   --> G_3            
     e( 15 - 16) =     11.44430  eV     2   --> G_4            

 **************************************************************************

 **************************************************************************

                    xk=(  -0.26517,  -0.44194,   0.61872  )

     double point group C_1 (1)    
     there are  2 classes and  1 irreducible representations
     the character table:

       E     -E   
                  
G_2    1.00 -1.00

     the symmetry operations in each class and the name of the first element:

     E             1
                                                                 
     -E           -1
                                                                 

     Band symmetry, C_1 (1)     double point group:

     e(  1 -  2) =     -3.63570  eV     2   -->   2 G_2            
     e(  3 -  4) =      0.21530  eV     2   -->   2 G_2            
     e(  5 -  6) =      2.74942  eV     2   -->   2 G_2            
     e(  7 -  8) =      4.11871  eV     2   -->   2 G_2            
     e(  9 - 10) =      8.86885  eV     2   -->   2 G_2            
     e( 11 - 12) =      9.53437  eV     2   -->   2 G_2            
     e( 13 - 14) =     10.98180  eV     2   -->   2 G_2            
     e( 15 - 16) =     11.88387  eV     2   -->   2 G_2            

 **************************************************************************

 **************************************************************************

                    xk=(  -0.17678,  -0.35355,   0.53033  )

     double point group C_2  (2)   
     there are  4 classes and  2 irreducible representations
     the character table:

       E     -E    C2    -C2  
                              
G_3    1.00 -1.00  0.00  0.00
G_4    1.00 -1.00  0.00  0.00

     imaginary part

       E     -E    C2    -C2  
                              
G_3    0.00  0.00  1.00 -1.00
G_4    0.00  0.00 -1.00  1.00

     the symmetry operations in each class and the name of the first element:

     E             1
                                                                 
     -E           -1
                                                                 
     C2            2
                                                                 
     -C2          -2
                                                                 

     Band symmetry, C_2  (2)    double point group:

     e(  1 -  2) =     -3.00217  eV     2   --> G_3            
     e(  1 -  2) =     -3.00217  eV     2   --> G_4            
     e(  3 -  4) =     -0.70349  eV     2   --> G_3            
     e(  3 -  4) =     -0.70349  eV     2   --> G_4            
     e(  5 -  6) =      2.61780  eV     2   --> G_3            
     e(  5 -  6) =      2.61780  eV     2   --> G_4            
     e(  7 -  8) =      3.89567  eV     2   --> G_3            
     e(  7 -  8) =      3.89567  eV     2   --> G_4            
     e(  9 - 10) =      9.02411  eV     2   --> G_3            
     e(  9 - 10) =      9.02411  eV     2   --> G_4            
     e( 11 - 12) =      9.15618  eV     2   --> G_3            
     e( 11 - 12) =      9.15618  eV     2   --> G_4            
     e( 13 - 14) =     11.84931  eV     2   --> G_3            
     e( 13 - 14) =     11.84931  eV     2   --> G_4            
     e( 15 - 15) =     13.07708  eV     1   -->   ?
     e( 16 - 16) =     13.07885  eV     1   -->   ?

 **************************************************************************

 **************************************************************************

                    xk=(  -0.17678,  -0.53033,   0.70711  )

     double point group C_s (m)    
     there are  4 classes and  2 irreducible representations
     the character table:

       E     -E    s     -s   
                              
G_3    1.00 -1.00  0.00  0.00
G_4    1.00 -1.00  0.00  0.00

     imaginary part

       E     -E    s     -s   
                              
G_3    0.00  0.00  1.00 -1.00
G_4    0.00  0.00 -1.00  1.00

     the symmetry operations in each class and the name of the first element:

     E             1
                                                                 
     -E           -1
                                                                 
     s             2
                                                                 
     -s           -2
                                                                 

     Band symmetry, C_s (m)     double point group:

     e(  1 -  2) =     -3.26595  eV     2   --> G_3            
     e(  1 -  2) =     -3.26595  eV     2   --> G_4            
     e(  3 -  4) =      0.07488  eV     2   --> G_3            
     e(  3 -  4) =      0.07488  eV     2   --> G_4            
     e(  5 -  6) =      2.71802  eV     2   --> G_3            
     e(  5 -  6) =      2.71802  eV     2   --> G_4            
     e(  7 -  8) =      3.31021  eV     2   --> G_3            
     e(  7 -  8) =      3.31021  eV     2   --> G_4            
     e(  9 - 10) =      7.96208  eV     2   --> G_3            
     e(  9 - 10) =      7.96208  eV     2   --> G_4            
     e( 11 - 12) =      8.66689  eV     2   --> G_3            
     e( 11 - 12) =      8.66689  eV     2   --> G_4            
     e( 13 - 14) =     11.68709  eV     2   --> G_3            
     e( 13 - 14) =     11.68709  eV     2   --> G_4            
     e( 15 - 16) =     13.88827  eV     2   --> G_3            
     e( 15 - 16) =     13.88827  eV     2   --> G_4            

 **************************************************************************

 **************************************************************************

                    xk=(  -0.08839,  -0.44194,   0.61872  )

     double point group C_1 (1)    
     there are  2 classes and  1 irreducible representations
     the character table:

       E     -E   
                  
G_2    1.00 -1.00

     the symmetry operations in each class and the name of the first element:

     E             1
                                                                 
     -E           -1
                                                                 

     Band symmetry, C_1 (1)     double point group:

     e(  1 -  2) =     -2.41315  eV     2   -->   2 G_2            
     e(  3 -  4) =     -0.87304  eV     2   -->   2 G_2            
     e(  5 -  6) =      2.03816  eV     2   -->   2 G_2            
     e(  7 -  8) =      3.11424  eV     2   -->   2 G_2            
     e(  9 - 10) =      8.40211  eV     2   -->   2 G_2            
     e( 11 - 12) =     10.27875  eV     2   -->   2 G_2            
     e( 13 - 14) =     11.21320  eV     2   -->   2 G_2            
     e( 15 - 16) =     13.35184  eV     2   -->   2 G_2            

 **************************************************************************

 **************************************************************************

                    xk=(   0.00000,  -0.35355,   0.53033  )

     double point group C_s (m)    
     there are  4 classes and  2 irreducible representations
     the character table:

       E     -E    s     -s   
                              
G_3    1.00 -1.00  0.00  0.00
G_4    1.00 -1.00  0.00  0.00

     imaginary part

       E     -E    s     -s   
                              
G_3    0.00  0.00  1.00 -1.00
G_4    0.00  0.00 -1.00  1.00

     the symmetry operations in each class and the name of the first element:

     E             1
                                                                 
     -E           -1
                                                                 
     s             2
                                                                 
     -s           -2
                                                                 

     Band symmetry, C_s (m)     double point group:

     e(  1 -  2) =     -2.75654  eV     2   --> G_3            
     e(  1 -  2) =     -2.75654  eV     2   --> G_4            
     e(  3 -  4) =     -0.51535  eV     2   --> G_3            
     e(  3 -  4) =     -0.51535  eV     2   --> G_4            
     e(  5 -  6) =      1.87586  eV     2   --> G_3            
     e(  5 -  6) =      1.87586  eV     2   --> G_4            
     e(  7 -  8) =      3.48088  eV     2   --> G_3            
     e(  7 -  8) =      3.48088  eV     2   --> G_4            
     e(  9 - 10) =      8.87094  eV     2   --> G_3            
     e(  9 - 10) =      8.87094  eV     2   --> G_4            
     e( 11 - 12) =     10.52114  eV     2   --> G_3            
     e( 11 - 12) =     10.52114  eV     2   --> G_4            
     e( 13 - 14) =     11.16988  eV     2   --> G_3            
     e( 13 - 14) =     11.16988  eV     2   --> G_4            
     e( 15 - 16) =     12.96766  eV     2   --> G_3            
     e( 15 - 16) =     12.96766  eV     2   --> G_4            

 **************************************************************************

 **************************************************************************

                    xk=(  -0.70711,   0.17678,   0.00000  )

     zone border point and non-symmorphic group 
     symmetry decomposition not available

 **************************************************************************

 **************************************************************************

                    xk=(  -0.70711,   0.35355,   0.00000  )

     zone border point and non-symmorphic group 
     symmetry decomposition not available

 **************************************************************************
 
     BANDS        :      4.43s CPU      4.83s WALL

 
   This run was terminated on:  21:21:25  29Nov2020            

=------------------------------------------------------------------------------=
   JOB DONE.
=------------------------------------------------------------------------------=
