mpijob CMD    : mpirun -f /tmp/mpiexec.params.k050801.20813
mpijob PARAMS : -d
        /home/k0508/k050801/research/dft/qeirreps/v1/qeirreps/reference/Si_soc
        r1i0n1 24 omplace -nt 1
        "/home/k0508/k050801/research/dft/qe-6.2/bin/bands.x"

SGI MPT Placement option
--------------------------
omplace -nt 1

Node   MPI
------------
r1i0n1 24


     Program BANDS v.6.2 (svn rev. 13949:13950) starts on  8Apr2020 at 16:21:34 

     This program is part of the open-source Quantum ESPRESSO suite
     for quantum simulation of materials; please cite
         "P. Giannozzi et al., J. Phys.:Condens. Matter 21 395502 (2009);
         "P. Giannozzi et al., J. Phys.:Condens. Matter 29 465901 (2017);
          URL http://www.quantum-espresso.org", 
     in publications or presentations arising from this work. More details at
     http://www.quantum-espresso.org/quote

     Parallel version (MPI), running on    24 processors

     MPI processes distributed on     1 nodes
     R & G space division:  proc/nbgrp/npool/nimage =      24

     Reading data from directory:
     ./work/band/Si.save

     IMPORTANT: XC functional enforced from input :
     Exchange-correlation      = PBE ( 1  4  3  4 0 0)
     Any further DFT definition will be discarded
     Please, verify this is what you really want

 
     Parallelization info
     --------------------
     sticks:   dense  smooth     PW     G-vecs:    dense   smooth      PW
     Min          61      61     17                 1553     1553     238
     Max          62      62     18                 1556     1556     242
     Sum        1483    1483    421                37309    37309    5769
 
     high-symmetry point:  0.0000 0.0000 0.0000   x coordinate   0.0000
     high-symmetry point:  0.0000 0.7071 0.0000   x coordinate   0.7071
     high-symmetry point:  0.1768 0.7071 0.1768   x coordinate   0.9571
     high-symmetry point:  0.5303 0.5303 0.0000   x coordinate   0.9571
     high-symmetry point:  0.0000 0.0000 0.0000   x coordinate   1.7071
     high-symmetry point:  0.3536 0.3536 0.3536   x coordinate   2.3195
     high-symmetry point:  0.3536 0.7071 0.0000   x coordinate   2.8195
     high-symmetry point:  0.0000 0.7071 0.0000   x coordinate   3.1730

     Plottable bands (eV) written to file Si.band.gnu
     Bands written to file Si.band

 **************************************************************************

                    xk=(   0.00000,   0.00000,   0.00000  )

     double point group O_h (m-3m) 
     there are 16 classes and  6 irreducible representations
     the character table:

       E     -E    8C3   -8C3   3C2  6C4   -6C4   6C2' i     -i    8S6   -8S6 
                               -3C2              -6C2'                        
G_6+   2.00 -2.00  1.00 -1.00  0.00  1.41 -1.41  0.00  2.00 -2.00  1.00 -1.00
G_7+   2.00 -2.00  1.00 -1.00  0.00 -1.41  1.41  0.00  2.00 -2.00  1.00 -1.00
G_8+   4.00 -4.00 -1.00  1.00  0.00  0.00  0.00  0.00  4.00 -4.00 -1.00  1.00
G_6-   2.00 -2.00  1.00 -1.00  0.00  1.41 -1.41  0.00 -2.00  2.00 -1.00  1.00
G_7-   2.00 -2.00  1.00 -1.00  0.00 -1.41  1.41  0.00 -2.00  2.00 -1.00  1.00
G_8-   4.00 -4.00 -1.00  1.00  0.00  0.00  0.00  0.00 -4.00  4.00  1.00 -1.00

        3s_h 6S4   -6S4   6s_d
       -3s_h             -6s_d
G_6+   0.00  1.41 -1.41  0.00
G_7+   0.00 -1.41  1.41  0.00
G_8+   0.00  0.00  0.00  0.00
G_6-   0.00 -1.41  1.41  0.00
G_7-   0.00  1.41 -1.41  0.00
G_8-   0.00  0.00  0.00  0.00

     the symmetry operations in each class and the name of the first element:

     E             1
                                                                 
     -E           -1
                                                                 
     8C3          17   19   20   18   24   21   22   23
                                                                 
     -8C3        -17  -19  -20  -18  -24  -21  -22  -23
                                                                 
      3C2 -3C2     2   -2    4   -4    3   -3
                                                                 
     6C4           7    8   15   16   12   11
                                                                 
     -6C4         -7   -8  -15  -16  -12  -11
                                                                 
      6C2'-6C2'    5   -5   -6    6   14  -13  -14   13   10   -9  -10    9
                                                                 
     i            25
                                                                 
     -i          -25
                                                                 
     8S6          41   43   44   42   48   45   46   47
                                                                 
     -8S6        -41  -43  -44  -42  -48  -45  -46  -47
                                                                 
      3s_h-3s_h   26  -26   28  -28   27  -27
                                                                 
     6S4          31   32   39   40   36   35
                                                                 
     -6S4        -31  -32  -39  -40  -36  -35
                                                                 
      6s_d-6s_d   29  -29  -30   30   38  -37  -38   37   34  -33  -34   33
                                                                 

     Band symmetry, O_h (m-3m)  double point group:

     e(  1 -  2) =     -5.80816  eV     2   --> G_6+           
     e(  3 -  4) =      5.97857  eV     2   --> G_7+           
     e(  5 -  8) =      6.02587  eV     4   --> G_8+           
     e(  9 - 10) =      8.53346  eV     2   --> G_6-           
     e( 11 - 14) =      8.56814  eV     4   --> G_8-           
     e( 15 - 16) =      9.10793  eV     2   --> G_7-           

 **************************************************************************

 **************************************************************************

                    xk=(   0.00000,   0.01179,   0.00000  )

     double point group C_4v (4mm) 
     there are  7 classes and  2 irreducible representations
     the character table:

       E     -E    2C4   -2C4   C2    2s_v  2s_d
                               -C2   -2s_v -2s_d
G_6    2.00 -2.00  1.41 -1.41  0.00  0.00  0.00
G_7    2.00 -2.00 -1.41  1.41  0.00  0.00  0.00

     the symmetry operations in each class and the name of the first element:

     E             1
                                                                 
     -E           -1
                                                                 
     2C4           3    4
                                                                 
     -2C4         -3   -4
                                                                 
      C2  -C2      2   -2
                                                                 
      2s_v-2s_v    5   -5    6   -6
                                                                 
      2s_d-2s_d    7   -7   -8    8
                                                                 

     Band symmetry, C_4v (4mm)  double point group:

     e(  1 -  2) =     -5.80696  eV     2   --> G_6   D_6      
     e(  3 -  4) =      5.97220  eV     2   --> G_7   D_7      
     e(  5 -  6) =      6.01826  eV     2   --> G_7   D_7      
     e(  7 -  8) =      6.02061  eV     2   --> G_6   D_6      
     e(  9 - 10) =      8.53634  eV     2   --> G_6   D_6      
     e( 11 - 12) =      8.56903  eV     2   --> G_6   D_6      
     e( 13 - 14) =      8.57473  eV     2   --> G_7   D_7      
     e( 15 - 16) =      9.11662  eV     2   --> G_7   D_7      

 **************************************************************************

 **************************************************************************

                    xk=(   0.00000,   0.02357,   0.00000  )

     Band symmetry, C_4v (4mm)  double point group:

     e(  1 -  2) =     -5.80338  eV     2   --> G_6   D_6      
     e(  3 -  4) =      5.95249  eV     2   --> G_7   D_7      
     e(  5 -  6) =      5.99654  eV     2   --> G_7   D_7      
     e(  7 -  8) =      6.00499  eV     2   --> G_6   D_6      
     e(  9 - 10) =      8.53714  eV     2   --> G_6   D_6      
     e( 11 - 12) =      8.57939  eV     2   --> G_6   D_6      
     e( 13 - 14) =      8.59434  eV     2   --> G_7   D_7      
     e( 15 - 16) =      9.14234  eV     2   --> G_7   D_7      

 **************************************************************************

 **************************************************************************

                    xk=(   0.00000,   0.03536,   0.00000  )

     Band symmetry, C_4v (4mm)  double point group:

     e(  1 -  2) =     -5.79741  eV     2   --> G_6   D_6      
     e(  3 -  4) =      5.91745  eV     2   --> G_7   D_7      
     e(  5 -  6) =      5.96402  eV     2   --> G_7   D_7      
     e(  7 -  8) =      5.97951  eV     2   --> G_6   D_6      
     e(  9 - 10) =      8.52674  eV     2   --> G_6   D_6      
     e( 11 - 12) =      8.60795  eV     2   --> G_6   D_6      
     e( 13 - 14) =      8.62649  eV     2   --> G_7   D_7      
     e( 15 - 16) =      9.18412  eV     2   --> G_7   D_7      

 **************************************************************************

 **************************************************************************

                    xk=(   0.00000,   0.04714,   0.00000  )

     Band symmetry, C_4v (4mm)  double point group:

     e(  1 -  2) =     -5.78906  eV     2   --> G_6   D_6      
     e(  3 -  4) =      5.86530  eV     2   --> G_7   D_7      
     e(  5 -  6) =      5.92452  eV     2   --> G_7   D_7      
     e(  7 -  8) =      5.94494  eV     2   --> G_6   D_6      
     e(  9 - 10) =      8.50801  eV     2   --> G_6   D_6      
     e( 11 - 12) =      8.65129  eV     2   --> G_6   D_6      
     e( 13 - 14) =      8.67047  eV     2   --> G_7   D_7      
     e( 15 - 16) =      9.24046  eV     2   --> G_7   D_7      

 **************************************************************************

 **************************************************************************

                    xk=(   0.00000,   0.05893,   0.00000  )

     Band symmetry, C_4v (4mm)  double point group:

     e(  1 -  2) =     -5.77832  eV     2   --> G_6   D_6      
     e(  3 -  4) =      5.79711  eV     2   --> G_7   D_7      
     e(  5 -  6) =      5.87944  eV     2   --> G_7   D_7      
     e(  7 -  8) =      5.90221  eV     2   --> G_6   D_6      
     e(  9 - 10) =      8.48310  eV     2   --> G_6   D_6      
     e( 11 - 12) =      8.70657  eV     2   --> G_6   D_6      
     e( 13 - 14) =      8.72538  eV     2   --> G_7   D_7      
     e( 15 - 16) =      9.30952  eV     2   --> G_7   D_7      

 **************************************************************************

 **************************************************************************

                    xk=(   0.00000,   0.07071,   0.00000  )

     Band symmetry, C_4v (4mm)  double point group:

     e(  1 -  2) =     -5.76520  eV     2   --> G_6   D_6      
     e(  3 -  4) =      5.71548  eV     2   --> G_7   D_7      
     e(  5 -  6) =      5.82881  eV     2   --> G_7   D_7      
     e(  7 -  8) =      5.85235  eV     2   --> G_6   D_6      
     e(  9 - 10) =      8.45285  eV     2   --> G_6   D_6      
     e( 11 - 12) =      8.77224  eV     2   --> G_6   D_6      
     e( 13 - 14) =      8.79025  eV     2   --> G_7   D_7      
     e( 15 - 16) =      9.38925  eV     2   --> G_7   D_7      

 **************************************************************************

 **************************************************************************

                    xk=(   0.00000,   0.08250,   0.00000  )

     Band symmetry, C_4v (4mm)  double point group:

     e(  1 -  2) =     -5.74970  eV     2   --> G_6   D_6      
     e(  3 -  4) =      5.62278  eV     2   --> G_7   D_7      
     e(  5 -  6) =      5.77291  eV     2   --> G_7   D_7      
     e(  7 -  8) =      5.79639  eV     2   --> G_6   D_6      
     e(  9 - 10) =      8.41780  eV     2   --> G_6   D_6      
     e( 11 - 12) =      8.84708  eV     2   --> G_6   D_6      
     e( 13 - 14) =      8.86407  eV     2   --> G_7   D_7      
     e( 15 - 16) =      9.47753  eV     2   --> G_7   D_7      

 **************************************************************************

 **************************************************************************

                    xk=(   0.00000,   0.09428,   0.00000  )

     Band symmetry, C_4v (4mm)  double point group:

     e(  1 -  2) =     -5.73182  eV     2   --> G_6   D_6      
     e(  3 -  4) =      5.52088  eV     2   --> G_7   D_7      
     e(  5 -  6) =      5.71235  eV     2   --> G_7   D_7      
     e(  7 -  8) =      5.73533  eV     2   --> G_6   D_6      
     e(  9 - 10) =      8.37841  eV     2   --> G_6   D_6      
     e( 11 - 12) =      8.93001  eV     2   --> G_6   D_6      
     e( 13 - 14) =      8.94588  eV     2   --> G_7   D_7      
     e( 15 - 16) =      9.57218  eV     2   --> G_7   D_7      

 **************************************************************************

 **************************************************************************

                    xk=(   0.00000,   0.10607,   0.00000  )

     Band symmetry, C_4v (4mm)  double point group:

     e(  1 -  2) =     -5.71156  eV     2   --> G_6   D_6      
     e(  3 -  4) =      5.41133  eV     2   --> G_7   D_7      
     e(  5 -  6) =      5.64781  eV     2   --> G_7   D_7      
     e(  7 -  8) =      5.67007  eV     2   --> G_6   D_6      
     e(  9 - 10) =      8.33513  eV     2   --> G_6   D_6      
     e( 11 - 12) =      9.02007  eV     2   --> G_6   D_6      
     e( 13 - 14) =      9.03479  eV     2   --> G_7   D_7      
     e( 15 - 16) =      9.67096  eV     2   --> G_7   D_7      

 **************************************************************************

 **************************************************************************

                    xk=(   0.00000,   0.11785,   0.00000  )

     Band symmetry, C_4v (4mm)  double point group:

     e(  1 -  2) =     -5.68893  eV     2   --> G_6   D_6      
     e(  3 -  4) =      5.29538  eV     2   --> G_7   D_7      
     e(  5 -  6) =      5.58001  eV     2   --> G_7   D_7      
     e(  7 -  8) =      5.60144  eV     2   --> G_6   D_6      
     e(  9 - 10) =      8.28839  eV     2   --> G_6   D_6      
     e( 11 - 12) =      9.11641  eV     2   --> G_6   D_6      
     e( 13 - 14) =      9.12998  eV     2   --> G_7   D_7      
     e( 15 - 16) =      9.77158  eV     2   --> G_7   D_7      

 **************************************************************************

 **************************************************************************

                    xk=(   0.00000,   0.12964,   0.00000  )

     Band symmetry, C_4v (4mm)  double point group:

     e(  1 -  2) =     -5.66393  eV     2   --> G_6   D_6      
     e(  3 -  4) =      5.17411  eV     2   --> G_7   D_7      
     e(  5 -  6) =      5.50962  eV     2   --> G_7   D_7      
     e(  7 -  8) =      5.53016  eV     2   --> G_6   D_6      
     e(  9 - 10) =      8.23862  eV     2   --> G_6   D_6      
     e( 11 - 12) =      9.21830  eV     2   --> G_6   D_6      
     e( 13 - 14) =      9.23072  eV     2   --> G_7   D_7      
     e( 15 - 16) =      9.87154  eV     2   --> G_7   D_7      

 **************************************************************************

 **************************************************************************

                    xk=(   0.00000,   0.14142,   0.00000  )

     Band symmetry, C_4v (4mm)  double point group:

     e(  1 -  2) =     -5.63657  eV     2   --> G_6   D_6      
     e(  3 -  4) =      5.04838  eV     2   --> G_7   D_7      
     e(  5 -  6) =      5.43721  eV     2   --> G_7   D_7      
     e(  7 -  8) =      5.45687  eV     2   --> G_6   D_6      
     e(  9 - 10) =      8.18624  eV     2   --> G_6   D_6      
     e( 11 - 12) =      9.32507  eV     2   --> G_6   D_6      
     e( 13 - 14) =      9.33638  eV     2   --> G_7   D_7      
     e( 15 - 16) =      9.96806  eV     2   --> G_7   D_7      

 **************************************************************************

 **************************************************************************

                    xk=(   0.00000,   0.15321,   0.00000  )

     Band symmetry, C_4v (4mm)  double point group:

     e(  1 -  2) =     -5.60685  eV     2   --> G_6   D_6      
     e(  3 -  4) =      4.91892  eV     2   --> G_7   D_7      
     e(  5 -  6) =      5.36332  eV     2   --> G_7   D_7      
     e(  7 -  8) =      5.38209  eV     2   --> G_6   D_6      
     e(  9 - 10) =      8.13166  eV     2   --> G_6   D_6      
     e( 11 - 12) =      9.43617  eV     2   --> G_6   D_6      
     e( 13 - 14) =      9.44640  eV     2   --> G_7   D_7      
     e( 15 - 16) =     10.05798  eV     2   --> G_7   D_7      

 **************************************************************************

 **************************************************************************

                    xk=(   0.00000,   0.16499,   0.00000  )

     Band symmetry, C_4v (4mm)  double point group:

     e(  1 -  2) =     -5.57477  eV     2   --> G_6   D_6      
     e(  3 -  4) =      4.78634  eV     2   --> G_7   D_7      
     e(  5 -  6) =      5.28839  eV     2   --> G_7   D_7      
     e(  7 -  8) =      5.30630  eV     2   --> G_6   D_6      
     e(  9 - 10) =      8.07526  eV     2   --> G_6   D_6      
     e( 11 - 12) =      9.55111  eV     2   --> G_6   D_6      
     e( 13 - 14) =      9.56031  eV     2   --> G_7   D_7      
     e( 15 - 16) =     10.13766  eV     2   --> G_7   D_7      

 **************************************************************************

 **************************************************************************

                    xk=(   0.00000,   0.17678,   0.00000  )

     Band symmetry, C_4v (4mm)  double point group:

     e(  1 -  2) =     -5.54033  eV     2   --> G_6   D_6      
     e(  3 -  4) =      4.65115  eV     2   --> G_7   D_7      
     e(  5 -  6) =      5.21281  eV     2   --> G_7   D_7      
     e(  7 -  8) =      5.22989  eV     2   --> G_6   D_6      
     e(  9 - 10) =      8.01739  eV     2   --> G_6   D_6      
     e( 11 - 12) =      9.66948  eV     2   --> G_6   D_6      
     e( 13 - 14) =      9.67768  eV     2   --> G_7   D_7      
     e( 15 - 16) =     10.20307  eV     2   --> G_7   D_7      

 **************************************************************************

 **************************************************************************

                    xk=(   0.00000,   0.18856,   0.00000  )

     Band symmetry, C_4v (4mm)  double point group:

     e(  1 -  2) =     -5.50356  eV     2   --> G_6   D_6      
     e(  3 -  4) =      4.51375  eV     2   --> G_7   D_7      
     e(  5 -  6) =      5.13692  eV     2   --> G_7   D_7      
     e(  7 -  8) =      5.15322  eV     2   --> G_6   D_6      
     e(  9 - 10) =      7.95841  eV     2   --> G_6   D_6      
     e( 11 - 12) =      9.79091  eV     2   --> G_6   D_6      
     e( 13 - 14) =      9.79816  eV     2   --> G_7   D_7      
     e( 15 - 16) =     10.25012  eV     2   --> G_7   D_7      

 **************************************************************************

 **************************************************************************

                    xk=(   0.00000,   0.20035,   0.00000  )

     Band symmetry, C_4v (4mm)  double point group:

     e(  1 -  2) =     -5.46444  eV     2   --> G_6   D_6      
     e(  3 -  4) =      4.37449  eV     2   --> G_7   D_7      
     e(  5 -  6) =      5.06102  eV     2   --> G_7   D_7      
     e(  7 -  8) =      5.07656  eV     2   --> G_6   D_6      
     e(  9 - 10) =      7.89862  eV     2   --> G_6   D_6      
     e( 11 - 12) =      9.91510  eV     2   --> G_6   D_6      
     e( 13 - 14) =      9.92141  eV     2   --> G_7   D_7      
     e( 15 - 16) =     10.27520  eV     2   --> G_7   D_7      

 **************************************************************************

 **************************************************************************

                    xk=(   0.00000,   0.21213,   0.00000  )

     Band symmetry, C_4v (4mm)  double point group:

     e(  1 -  2) =     -5.42299  eV     2   --> G_6   D_6      
     e(  3 -  4) =      4.23368  eV     2   --> G_7   D_7      
     e(  5 -  6) =      4.98536  eV     2   --> G_7   D_7      
     e(  7 -  8) =      5.00018  eV     2   --> G_6   D_6      
     e(  9 - 10) =      7.83833  eV     2   --> G_6   D_6      
     e( 11 - 12) =     10.04177  eV     2   --> G_6   D_6      
     e( 13 - 14) =     10.04714  eV     2   --> G_7   D_7      
     e( 15 - 16) =     10.27606  eV     2   --> G_7   D_7      

 **************************************************************************

 **************************************************************************

                    xk=(   0.00000,   0.22392,   0.00000  )

     Band symmetry, C_4v (4mm)  double point group:

     e(  1 -  2) =     -5.37921  eV     2   --> G_6   D_6      
     e(  3 -  4) =      4.09154  eV     2   --> G_7   D_7      
     e(  5 -  6) =      4.91014  eV     2   --> G_7   D_7      
     e(  7 -  8) =      4.92428  eV     2   --> G_6   D_6      
     e(  9 - 10) =      7.77781  eV     2   --> G_6   D_6      
     e( 11 - 12) =     10.17070  eV     2   --> G_6   D_6      
     e( 13 - 14) =     10.17472  eV     2   --> G_7   D_7      
     e( 15 - 16) =     10.25271  eV     2   --> G_7   D_7      

 **************************************************************************

 **************************************************************************

                    xk=(   0.00000,   0.23570,   0.00000  )

     Band symmetry, C_4v (4mm)  double point group:

     e(  1 -  2) =     -5.33312  eV     2   --> G_6   D_6      
     e(  3 -  4) =      3.94829  eV     2   --> G_7   D_7      
     e(  5 -  6) =      4.83558  eV     2   --> G_7   D_7      
     e(  7 -  8) =      4.84906  eV     2   --> G_6   D_6      
     e(  9 - 10) =      7.71730  eV     2   --> G_6   D_6      
     e( 11 - 12) =     10.20444  eV     2   --> G_7   D_7      
     e( 13 - 14) =     10.30166  eV     2   --> G_6   D_6      
     e( 15 - 16) =     10.30629  eV     2   --> G_7   D_7      

 **************************************************************************

 **************************************************************************

                    xk=(   0.00000,   0.24749,   0.00000  )

     Band symmetry, C_4v (4mm)  double point group:

     e(  1 -  2) =     -5.28471  eV     2   --> G_6   D_6      
     e(  3 -  4) =      3.80410  eV     2   --> G_7   D_7      
     e(  5 -  6) =      4.76182  eV     2   --> G_7   D_7      
     e(  7 -  8) =      4.77469  eV     2   --> G_6   D_6      
     e(  9 - 10) =      7.65705  eV     2   --> G_6   D_6      
     e( 11 - 12) =     10.13801  eV     2   --> G_7   D_7      
     e( 13 - 14) =     10.43449  eV     2   --> G_6   D_6      
     e( 15 - 16) =     10.43798  eV     2   --> G_7   D_7      

 **************************************************************************

 **************************************************************************

                    xk=(   0.00000,   0.25927,   0.00000  )

     Band symmetry, C_4v (4mm)  double point group:

     e(  1 -  2) =     -5.23400  eV     2   --> G_6   D_6      
     e(  3 -  4) =      3.65912  eV     2   --> G_7   D_7      
     e(  5 -  6) =      4.68901  eV     2   --> G_7   D_7      
     e(  7 -  8) =      4.70130  eV     2   --> G_6   D_6      
     e(  9 - 10) =      7.59726  eV     2   --> G_6   D_6      
     e( 11 - 12) =     10.05502  eV     2   --> G_7   D_7      
     e( 13 - 14) =     10.56903  eV     2   --> G_6   D_6      
     e( 15 - 16) =     10.57171  eV     2   --> G_7   D_7      

 **************************************************************************

 **************************************************************************

                    xk=(   0.00000,   0.27106,   0.00000  )

     Band symmetry, C_4v (4mm)  double point group:

     e(  1 -  2) =     -5.18100  eV     2   --> G_6   D_6      
     e(  3 -  4) =      3.51348  eV     2   --> G_7   D_7      
     e(  5 -  6) =      4.61729  eV     2   --> G_7   D_7      
     e(  7 -  8) =      4.62901  eV     2   --> G_6   D_6      
     e(  9 - 10) =      7.53813  eV     2   --> G_6   D_6      
     e( 11 - 12) =      9.95937  eV     2   --> G_7   D_7      
     e( 13 - 14) =     10.70512  eV     2   --> G_6   D_6      
     e( 15 - 16) =     10.70708  eV     2   --> G_7   D_7      

 **************************************************************************

 **************************************************************************

                    xk=(   0.00000,   0.28284,   0.00000  )

     Band symmetry, C_4v (4mm)  double point group:

     e(  1 -  2) =     -5.12571  eV     2   --> G_6   D_6      
     e(  3 -  4) =      3.36729  eV     2   --> G_7   D_7      
     e(  5 -  6) =      4.54675  eV     2   --> G_7   D_7      
     e(  7 -  8) =      4.55795  eV     2   --> G_6   D_6      
     e(  9 - 10) =      7.47984  eV     2   --> G_6   D_6      
     e( 11 - 12) =      9.85428  eV     2   --> G_7   D_7      
     e( 13 - 14) =     10.84266  eV     2   --> G_6   D_6      
     e( 15 - 16) =     10.84394  eV     2   --> G_7   D_7      

 **************************************************************************

 **************************************************************************

                    xk=(   0.00000,   0.29463,   0.00000  )

     Band symmetry, C_4v (4mm)  double point group:

     e(  1 -  2) =     -5.06814  eV     2   --> G_6   D_6      
     e(  3 -  4) =      3.22064  eV     2   --> G_7   D_7      
     e(  5 -  6) =      4.47751  eV     2   --> G_7   D_7      
     e(  7 -  8) =      4.48819  eV     2   --> G_6   D_6      
     e(  9 - 10) =      7.42256  eV     2   --> G_6   D_6      
     e( 11 - 12) =      9.74242  eV     2   --> G_7   D_7      
     e( 13 - 14) =     10.98152  eV     2   --> G_6   D_6      
     e( 15 - 16) =     10.98216  eV     2   --> G_7   D_7      

 **************************************************************************

 **************************************************************************

                    xk=(   0.00000,   0.30641,   0.00000  )

     Band symmetry, C_4v (4mm)  double point group:

     e(  1 -  2) =     -5.00831  eV     2   --> G_6   D_6      
     e(  3 -  4) =      3.07362  eV     2   --> G_7   D_7      
     e(  5 -  6) =      4.40964  eV     2   --> G_7   D_7      
     e(  7 -  8) =      4.41984  eV     2   --> G_6   D_6      
     e(  9 - 10) =      7.36644  eV     2   --> G_6   D_6      
     e( 11 - 12) =      9.62591  eV     2   --> G_7   D_7      
     e( 13 - 16) =     11.12161  eV     4   --> G_6   D_6      
     e( 13 - 16) =     11.12161  eV     4   --> G_7   D_7      

 **************************************************************************

 **************************************************************************

                    xk=(   0.00000,   0.31820,   0.00000  )

     Band symmetry, C_4v (4mm)  double point group:

     e(  1 -  2) =     -4.94623  eV     2   --> G_6   D_6      
     e(  3 -  4) =      2.92632  eV     2   --> G_7   D_7      
     e(  5 -  6) =      4.34323  eV     2   --> G_7   D_7      
     e(  7 -  8) =      4.35297  eV     2   --> G_6   D_6      
     e(  9 - 10) =      7.31161  eV     2   --> G_6   D_6      
     e( 11 - 12) =      9.50643  eV     2   --> G_7   D_7      
     e( 13 - 14) =     11.26229  eV     2   --> G_7   D_7      
     e( 15 - 16) =     11.26285  eV     2   --> G_6   D_6      

 **************************************************************************

 **************************************************************************

                    xk=(   0.00000,   0.32998,   0.00000  )

     Band symmetry, C_4v (4mm)  double point group:

     e(  1 -  2) =     -4.88190  eV     2   --> G_6   D_6      
     e(  3 -  4) =      2.77879  eV     2   --> G_7   D_7      
     e(  5 -  6) =      4.27834  eV     2   --> G_7   D_7      
     e(  7 -  8) =      4.28763  eV     2   --> G_6   D_6      
     e(  9 - 10) =      7.25821  eV     2   --> G_6   D_6      
     e( 11 - 12) =      9.38528  eV     2   --> G_7   D_7      
     e( 13 - 14) =     11.40402  eV     2   --> G_7   D_7      
     e( 15 - 16) =     11.40515  eV     2   --> G_6   D_6      

 **************************************************************************

 **************************************************************************

                    xk=(   0.00000,   0.34177,   0.00000  )

     Band symmetry, C_4v (4mm)  double point group:

     e(  1 -  2) =     -4.81534  eV     2   --> G_6   D_6      
     e(  3 -  4) =      2.63110  eV     2   --> G_7   D_7      
     e(  5 -  6) =      4.21505  eV     2   --> G_7   D_7      
     e(  7 -  8) =      4.22391  eV     2   --> G_6   D_6      
     e(  9 - 10) =      7.20635  eV     2   --> G_6   D_6      
     e( 11 - 12) =      9.26349  eV     2   --> G_7   D_7      
     e( 13 - 14) =     11.54678  eV     2   --> G_7   D_7      
     e( 15 - 16) =     11.54845  eV     2   --> G_6   D_6      

 **************************************************************************

 **************************************************************************

                    xk=(   0.00000,   0.35355,   0.00000  )

     Band symmetry, C_4v (4mm)  double point group:

     e(  1 -  2) =     -4.74656  eV     2   --> G_6   D_6      
     e(  3 -  4) =      2.48332  eV     2   --> G_7   D_7      
     e(  5 -  6) =      4.15339  eV     2   --> G_7   D_7      
     e(  7 -  8) =      4.16184  eV     2   --> G_6   D_6      
     e(  9 - 10) =      7.15614  eV     2   --> G_6   D_6      
     e( 11 - 12) =      9.14186  eV     2   --> G_7   D_7      
     e( 13 - 14) =     11.69049  eV     2   --> G_7   D_7      
     e( 15 - 16) =     11.69267  eV     2   --> G_6   D_6      

 **************************************************************************

 **************************************************************************

                    xk=(   0.00000,   0.36534,   0.00000  )

     Band symmetry, C_4v (4mm)  double point group:

     e(  1 -  2) =     -4.67558  eV     2   --> G_6   D_6      
     e(  3 -  4) =      2.33549  eV     2   --> G_7   D_7      
     e(  5 -  6) =      4.09343  eV     2   --> G_7   D_7      
     e(  7 -  8) =      4.10148  eV     2   --> G_6   D_6      
     e(  9 - 10) =      7.10770  eV     2   --> G_6   D_6      
     e( 11 - 12) =      9.02104  eV     2   --> G_7   D_7      
     e( 13 - 14) =     11.83510  eV     2   --> G_7   D_7      
     e( 15 - 16) =     11.83778  eV     2   --> G_6   D_6      

 **************************************************************************

 **************************************************************************

                    xk=(   0.00000,   0.37712,   0.00000  )

     Band symmetry, C_4v (4mm)  double point group:

     e(  1 -  2) =     -4.60240  eV     2   --> G_6   D_6      
     e(  3 -  4) =      2.18768  eV     2   --> G_7   D_7      
     e(  5 -  6) =      4.03520  eV     2   --> G_7   D_7      
     e(  7 -  8) =      4.04288  eV     2   --> G_6   D_6      
     e(  9 - 10) =      7.06110  eV     2   --> G_6   D_6      
     e( 11 - 12) =      8.90154  eV     2   --> G_7   D_7      
     e( 13 - 14) =     11.98055  eV     2   --> G_7   D_7      
     e( 15 - 16) =     11.98371  eV     2   --> G_6   D_6      

 **************************************************************************

 **************************************************************************

                    xk=(   0.00000,   0.38891,   0.00000  )

     Band symmetry, C_4v (4mm)  double point group:

     e(  1 -  2) =     -4.52705  eV     2   --> G_6   D_6      
     e(  3 -  4) =      2.03993  eV     2   --> G_7   D_7      
     e(  5 -  6) =      3.97876  eV     2   --> G_7   D_7      
     e(  7 -  8) =      3.98606  eV     2   --> G_6   D_6      
     e(  9 - 10) =      7.01644  eV     2   --> G_6   D_6      
     e( 11 - 12) =      8.78378  eV     2   --> G_7   D_7      
     e( 13 - 14) =     12.12681  eV     2   --> G_7   D_7      
     e( 15 - 16) =     12.13043  eV     2   --> G_6   D_6      

 **************************************************************************

 **************************************************************************

                    xk=(   0.00000,   0.40069,   0.00000  )

     Band symmetry, C_4v (4mm)  double point group:

     e(  1 -  2) =     -4.44953  eV     2   --> G_6   D_6      
     e(  3 -  4) =      1.89230  eV     2   --> G_7   D_7      
     e(  5 -  6) =      3.92413  eV     2   --> G_7   D_7      
     e(  7 -  8) =      3.93108  eV     2   --> G_6   D_6      
     e(  9 - 10) =      6.97380  eV     2   --> G_6   D_6      
     e( 11 - 12) =      8.66809  eV     2   --> G_7   D_7      
     e( 13 - 14) =     12.27384  eV     2   --> G_7   D_7      
     e( 15 - 16) =     12.27789  eV     2   --> G_6   D_6      

 **************************************************************************

 **************************************************************************

                    xk=(   0.00000,   0.41248,   0.00000  )

     Band symmetry, C_4v (4mm)  double point group:

     e(  1 -  2) =     -4.36987  eV     2   --> G_6   D_6      
     e(  3 -  4) =      1.74483  eV     2   --> G_7   D_7      
     e(  5 -  6) =      3.87135  eV     2   --> G_7   D_7      
     e(  7 -  8) =      3.87796  eV     2   --> G_6   D_6      
     e(  9 - 10) =      6.93325  eV     2   --> G_6   D_6      
     e( 11 - 12) =      8.55474  eV     2   --> G_7   D_7      
     e( 13 - 14) =     12.42159  eV     2   --> G_7   D_7      
     e( 15 - 16) =     12.42606  eV     2   --> G_6   D_6      

 **************************************************************************

 **************************************************************************

                    xk=(   0.00000,   0.42426,   0.00000  )

     Band symmetry, C_4v (4mm)  double point group:

     e(  1 -  2) =     -4.28807  eV     2   --> G_6   D_6      
     e(  3 -  4) =      1.59757  eV     2   --> G_7   D_7      
     e(  5 -  6) =      3.82046  eV     2   --> G_7   D_7      
     e(  7 -  8) =      3.82673  eV     2   --> G_6   D_6      
     e(  9 - 10) =      6.89487  eV     2   --> G_6   D_6      
     e( 11 - 12) =      8.44397  eV     2   --> G_7   D_7      
     e( 13 - 14) =     12.57003  eV     2   --> G_7   D_7      
     e( 15 - 16) =     12.57491  eV     2   --> G_6   D_6      

 **************************************************************************

 **************************************************************************

                    xk=(   0.00000,   0.43605,   0.00000  )

     Band symmetry, C_4v (4mm)  double point group:

     e(  1 -  2) =     -4.20416  eV     2   --> G_6   D_6      
     e(  3 -  4) =      1.45057  eV     2   --> G_7   D_7      
     e(  5 -  6) =      3.77148  eV     2   --> G_7   D_7      
     e(  7 -  8) =      3.77743  eV     2   --> G_6   D_6      
     e(  9 - 10) =      6.85873  eV     2   --> G_6   D_6      
     e( 11 - 12) =      8.33594  eV     2   --> G_7   D_7      
     e( 13 - 14) =     12.71915  eV     2   --> G_7   D_7      
     e( 15 - 16) =     12.72440  eV     2   --> G_6   D_6      

 **************************************************************************

 **************************************************************************

                    xk=(   0.00000,   0.44783,   0.00000  )

     Band symmetry, C_4v (4mm)  double point group:

     e(  1 -  2) =     -4.11816  eV     2   --> G_6   D_6      
     e(  3 -  4) =      1.30389  eV     2   --> G_7   D_7      
     e(  5 -  6) =      3.72443  eV     2   --> G_7   D_7      
     e(  7 -  8) =      3.73007  eV     2   --> G_6   D_6      
     e(  9 - 10) =      6.82488  eV     2   --> G_6   D_6      
     e( 11 - 12) =      8.23082  eV     2   --> G_7   D_7      
     e( 13 - 14) =     12.86890  eV     2   --> G_7   D_7      
     e( 15 - 16) =     12.87452  eV     2   --> G_6   D_6      

 **************************************************************************

 **************************************************************************

                    xk=(   0.00000,   0.45962,   0.00000  )

     Band symmetry, C_4v (4mm)  double point group:

     e(  1 -  2) =     -4.03008  eV     2   --> G_6   D_6      
     e(  3 -  4) =      1.15756  eV     2   --> G_7   D_7      
     e(  5 -  6) =      3.67934  eV     2   --> G_7   D_7      
     e(  7 -  8) =      3.68467  eV     2   --> G_6   D_6      
     e(  9 - 10) =      6.79339  eV     2   --> G_6   D_6      
     e( 11 - 12) =      8.12873  eV     2   --> G_7   D_7      
     e( 13 - 14) =     13.01925  eV     2   --> G_7   D_7      
     e( 15 - 16) =     13.02522  eV     2   --> G_6   D_6      

 **************************************************************************

 **************************************************************************

                    xk=(   0.00000,   0.47140,   0.00000  )

     Band symmetry, C_4v (4mm)  double point group:

     e(  1 -  2) =     -3.93994  eV     2   --> G_6   D_6      
     e(  3 -  4) =      1.01165  eV     2   --> G_7   D_7      
     e(  5 -  6) =      3.63624  eV     2   --> G_7   D_7      
     e(  7 -  8) =      3.64127  eV     2   --> G_6   D_6      
     e(  9 - 10) =      6.76432  eV     2   --> G_6   D_6      
     e( 11 - 12) =      8.02977  eV     2   --> G_7   D_7      
     e( 13 - 14) =     13.17019  eV     2   --> G_7   D_7      
     e( 15 - 16) =     13.17649  eV     2   --> G_6   D_6      

 **************************************************************************

 **************************************************************************

                    xk=(   0.00000,   0.48319,   0.00000  )

     Band symmetry, C_4v (4mm)  double point group:

     e(  1 -  2) =     -3.84776  eV     2   --> G_6   D_6      
     e(  3 -  4) =      0.86620  eV     2   --> G_7   D_7      
     e(  5 -  6) =      3.59513  eV     2   --> G_7   D_7      
     e(  7 -  8) =      3.59987  eV     2   --> G_6   D_6      
     e(  9 - 10) =      6.73771  eV     2   --> G_6   D_6      
     e( 11 - 12) =      7.93403  eV     2   --> G_7   D_7      
     e( 13 - 14) =     13.32169  eV     2   --> G_7   D_7      
     e( 15 - 16) =     13.32829  eV     2   --> G_6   D_6      

 **************************************************************************

 **************************************************************************

                    xk=(   0.00000,   0.49497,   0.00000  )

     Band symmetry, C_4v (4mm)  double point group:

     e(  1 -  2) =     -3.75357  eV     2   --> G_6   D_6      
     e(  3 -  4) =      0.72126  eV     2   --> G_7   D_7      
     e(  5 -  6) =      3.55605  eV     2   --> G_7   D_7      
     e(  7 -  8) =      3.56050  eV     2   --> G_6   D_6      
     e(  9 - 10) =      6.71363  eV     2   --> G_6   D_6      
     e( 11 - 12) =      7.84156  eV     2   --> G_7   D_7      
     e( 13 - 14) =     13.47370  eV     2   --> G_7   D_7      
     e( 15 - 16) =     13.48059  eV     2   --> G_6   D_6      

 **************************************************************************

 **************************************************************************

                    xk=(   0.00000,   0.50676,   0.00000  )

     Band symmetry, C_4v (4mm)  double point group:

     e(  1 -  2) =     -3.65738  eV     2   --> G_6   D_6      
     e(  3 -  4) =      0.57688  eV     2   --> G_7   D_7      
     e(  5 -  6) =      3.51900  eV     2   --> G_7   D_7      
     e(  7 -  8) =      3.52318  eV     2   --> G_6   D_6      
     e(  9 - 10) =      6.69211  eV     2   --> G_6   D_6      
     e( 11 - 12) =      7.75242  eV     2   --> G_7   D_7      
     e( 13 - 14) =     13.62620  eV     2   --> G_7   D_7      
     e( 15 - 16) =     13.63336  eV     2   --> G_6   D_6      

 **************************************************************************

 **************************************************************************

                    xk=(   0.00000,   0.51854,   0.00000  )

     Band symmetry, C_4v (4mm)  double point group:

     e(  1 -  2) =     -3.55922  eV     2   --> G_6   D_6      
     e(  3 -  4) =      0.43311  eV     2   --> G_7   D_7      
     e(  5 -  6) =      3.48400  eV     2   --> G_7   D_7      
     e(  7 -  8) =      3.48791  eV     2   --> G_6   D_6      
     e(  9 - 10) =      6.67321  eV     2   --> G_6   D_6      
     e( 11 - 12) =      7.66666  eV     2   --> G_7   D_7      
     e( 13 - 14) =     13.77915  eV     2   --> G_7   D_7      
     e( 15 - 16) =     13.78655  eV     2   --> G_6   D_6      

 **************************************************************************

 **************************************************************************

                    xk=(   0.00000,   0.53033,   0.00000  )

     Band symmetry, C_4v (4mm)  double point group:

     e(  1 -  2) =     -3.45911  eV     2   --> G_6   D_6      
     e(  3 -  4) =      0.29001  eV     2   --> G_7   D_7      
     e(  5 -  6) =      3.45107  eV     2   --> G_7   D_7      
     e(  7 -  8) =      3.45471  eV     2   --> G_6   D_6      
     e(  9 - 10) =      6.65697  eV     2   --> G_6   D_6      
     e( 11 - 12) =      7.58430  eV     2   --> G_7   D_7      
     e( 13 - 14) =     13.93247  eV     2   --> G_7   D_7      
     e( 15 - 16) =     13.94010  eV     2   --> G_6   D_6      

 **************************************************************************

 **************************************************************************

                    xk=(   0.00000,   0.54212,   0.00000  )

     Band symmetry, C_4v (4mm)  double point group:

     e(  1 -  2) =     -3.35708  eV     2   --> G_6   D_6      
     e(  3 -  4) =      0.14761  eV     2   --> G_7   D_7      
     e(  5 -  6) =      3.42021  eV     2   --> G_7   D_7      
     e(  7 -  8) =      3.42359  eV     2   --> G_6   D_6      
     e(  9 - 10) =      6.64343  eV     2   --> G_6   D_6      
     e( 11 - 12) =      7.50537  eV     2   --> G_7   D_7      
     e( 13 - 14) =     14.08612  eV     2   --> G_7   D_7      
     e( 15 - 16) =     14.09395  eV     2   --> G_6   D_6      

 **************************************************************************

 **************************************************************************

                    xk=(   0.00000,   0.55390,   0.00000  )

     Band symmetry, C_4v (4mm)  double point group:

     e(  1 -  2) =     -3.25315  eV     2   --> G_6   D_6      
     e(  3 -  4) =      0.00599  eV     2   --> G_7   D_7      
     e(  5 -  6) =      3.39145  eV     2   --> G_7   D_7      
     e(  7 -  8) =      3.39456  eV     2   --> G_6   D_6      
     e(  9 - 10) =      6.63264  eV     2   --> G_6   D_6      
     e( 11 - 12) =      7.42988  eV     2   --> G_7   D_7      
     e( 13 - 14) =     14.23999  eV     2   --> G_7   D_7      
     e( 15 - 16) =     14.24801  eV     2   --> G_6   D_6      

 **************************************************************************

 **************************************************************************

                    xk=(   0.00000,   0.56569,   0.00000  )

     Band symmetry, C_4v (4mm)  double point group:

     e(  1 -  2) =     -3.14735  eV     2   --> G_6   D_6      
     e(  3 -  4) =     -0.13482  eV     2   --> G_7   D_7      
     e(  5 -  6) =      3.36478  eV     2   --> G_7   D_7      
     e(  7 -  8) =      3.36764  eV     2   --> G_6   D_6      
     e(  9 - 10) =      6.62463  eV     2   --> G_6   D_6      
     e( 11 - 12) =      7.35784  eV     2   --> G_7   D_7      
     e( 13 - 14) =     14.39397  eV     2   --> G_7   D_7      
     e( 15 - 16) =     14.40215  eV     2   --> G_6   D_6      

 **************************************************************************

 **************************************************************************

                    xk=(   0.00000,   0.57747,   0.00000  )

     Band symmetry, C_4v (4mm)  double point group:

     e(  1 -  2) =     -3.03971  eV     2   --> G_6   D_6      
     e(  3 -  4) =     -0.27477  eV     2   --> G_7   D_7      
     e(  5 -  6) =      3.34022  eV     2   --> G_7   D_7      
     e(  7 -  8) =      3.34284  eV     2   --> G_6   D_6      
     e(  9 - 10) =      6.61945  eV     2   --> G_6   D_6      
     e( 11 - 12) =      7.28925  eV     2   --> G_7   D_7      
     e( 13 - 14) =     14.54789  eV     2   --> G_7   D_7      
     e( 15 - 16) =     14.55620  eV     2   --> G_6   D_6      

 **************************************************************************

 **************************************************************************

                    xk=(   0.00000,   0.58926,   0.00000  )

     Band symmetry, C_4v (4mm)  double point group:

     e(  1 -  2) =     -2.93026  eV     2   --> G_6   D_6      
     e(  3 -  4) =     -0.41380  eV     2   --> G_7   D_7      
     e(  5 -  6) =      3.31779  eV     2   --> G_7   D_7      
     e(  7 -  8) =      3.32015  eV     2   --> G_6   D_6      
     e(  9 - 10) =      6.61714  eV     2   --> G_6   D_6      
     e( 11 - 12) =      7.22411  eV     2   --> G_7   D_7      
     e( 13 - 14) =     14.70154  eV     2   --> G_7   D_7      
     e( 15 - 16) =     14.70995  eV     2   --> G_6   D_6      

 **************************************************************************

 **************************************************************************

                    xk=(   0.00000,   0.60104,   0.00000  )

     Band symmetry, C_4v (4mm)  double point group:

     e(  1 -  2) =     -2.81901  eV     2   --> G_6   D_6      
     e(  3 -  4) =     -0.55186  eV     2   --> G_7   D_7      
     e(  5 -  6) =      3.29747  eV     2   --> G_7   D_7      
     e(  7 -  8) =      3.29959  eV     2   --> G_6   D_6      
     e(  9 - 10) =      6.61773  eV     2   --> G_6   D_6      
     e( 11 - 12) =      7.16241  eV     2   --> G_7   D_7      
     e( 13 - 14) =     14.85460  eV     2   --> G_7   D_7      
     e( 15 - 16) =     14.86307  eV     2   --> G_6   D_6      

 **************************************************************************

 **************************************************************************

                    xk=(   0.00000,   0.61283,   0.00000  )

     Band symmetry, C_4v (4mm)  double point group:

     e(  1 -  2) =     -2.70602  eV     2   --> G_6   D_6      
     e(  3 -  4) =     -0.68890  eV     2   --> G_7   D_7      
     e(  5 -  6) =      3.27929  eV     2   --> G_7   D_7      
     e(  7 -  8) =      3.28117  eV     2   --> G_6   D_6      
     e(  9 - 10) =      6.62126  eV     2   --> G_6   D_6      
     e( 11 - 12) =      7.10414  eV     2   --> G_7   D_7      
     e( 13 - 14) =     15.00662  eV     2   --> G_7   D_7      
     e( 15 - 16) =     15.01510  eV     2   --> G_6   D_6      

 **************************************************************************

 **************************************************************************

                    xk=(   0.00000,   0.62461,   0.00000  )

     Band symmetry, C_4v (4mm)  double point group:

     e(  1 -  2) =     -2.59130  eV     2   --> G_6   D_6      
     e(  3 -  4) =     -0.82488  eV     2   --> G_7   D_7      
     e(  5 -  6) =      3.26325  eV     2   --> G_7   D_7      
     e(  7 -  8) =      3.26489  eV     2   --> G_6   D_6      
     e(  9 - 10) =      6.62776  eV     2   --> G_6   D_6      
     e( 11 - 12) =      7.04929  eV     2   --> G_7   D_7      
     e( 13 - 14) =     15.15694  eV     2   --> G_7   D_7      
     e( 15 - 16) =     15.16536  eV     2   --> G_6   D_6      

 **************************************************************************

 **************************************************************************

                    xk=(   0.00000,   0.63640,   0.00000  )

     Band symmetry, C_4v (4mm)  double point group:

     e(  1 -  2) =     -2.47489  eV     2   --> G_6   D_6      
     e(  3 -  4) =     -0.95975  eV     2   --> G_7   D_7      
     e(  5 -  6) =      3.24935  eV     2   --> G_7   D_7      
     e(  7 -  8) =      3.25075  eV     2   --> G_6   D_6      
     e(  9 - 10) =      6.63728  eV     2   --> G_6   D_6      
     e( 11 - 12) =      6.99785  eV     2   --> G_7   D_7      
     e( 13 - 14) =     15.30452  eV     2   --> G_7   D_7      
     e( 15 - 16) =     15.31280  eV     2   --> G_6   D_6      

 **************************************************************************

 **************************************************************************

                    xk=(   0.00000,   0.64818,   0.00000  )

     Band symmetry, C_4v (4mm)  double point group:

     e(  1 -  2) =     -2.35683  eV     2   --> G_6   D_6      
     e(  3 -  4) =     -1.09345  eV     2   --> G_7   D_7      
     e(  5 -  6) =      3.23760  eV     2   --> G_7   D_7      
     e(  7 -  8) =      3.23877  eV     2   --> G_6   D_6      
     e(  9 - 10) =      6.64984  eV     2   --> G_6   D_6      
     e( 11 - 12) =      6.94979  eV     2   --> G_7   D_7      
     e( 13 - 14) =     15.44775  eV     2   --> G_7   D_7      
     e( 15 - 16) =     15.45576  eV     2   --> G_6   D_6      

 **************************************************************************

 **************************************************************************

                    xk=(   0.00000,   0.65997,   0.00000  )

     Band symmetry, C_4v (4mm)  double point group:

     e(  1 -  2) =     -2.23714  eV     2   --> G_6   D_6      
     e(  3 -  4) =     -1.22595  eV     2   --> G_7   D_7      
     e(  5 -  6) =      3.22801  eV     2   --> G_7   D_7      
     e(  7 -  8) =      3.22894  eV     2   --> G_6   D_6      
     e(  9 - 10) =      6.66547  eV     2   --> G_6   D_6      
     e( 11 - 12) =      6.90509  eV     2   --> G_7   D_7      
     e( 13 - 14) =     15.58397  eV     2   --> G_7   D_7      
     e( 15 - 16) =     15.59148  eV     2   --> G_6   D_6      

 **************************************************************************

 **************************************************************************

                    xk=(   0.00000,   0.67175,   0.00000  )

     Band symmetry, C_4v (4mm)  double point group:

     e(  1 -  2) =     -2.11588  eV     2   --> G_6   D_6      
     e(  3 -  4) =     -1.35719  eV     2   --> G_7   D_7      
     e(  5 -  6) =      3.22056  eV     2   --> G_7   D_7      
     e(  7 -  8) =      3.22126  eV     2   --> G_6   D_6      
     e(  9 - 10) =      6.68422  eV     2   --> G_6   D_6      
     e( 11 - 12) =      6.86373  eV     2   --> G_7   D_7      
     e( 13 - 14) =     15.70862  eV     2   --> G_7   D_7      
     e( 15 - 16) =     15.71528  eV     2   --> G_6   D_6      

 **************************************************************************

 **************************************************************************

                    xk=(   0.00000,   0.68354,   0.00000  )

     Band symmetry, C_4v (4mm)  double point group:

     e(  1 -  2) =     -1.99306  eV     2   --> G_6   D_6      
     e(  3 -  4) =     -1.48713  eV     2   --> G_7   D_7      
     e(  5 -  6) =      3.21528  eV     2   --> G_7   D_7      
     e(  7 -  8) =      3.21574  eV     2   --> G_6   D_6      
     e(  9 - 10) =      6.70610  eV     2   --> G_6   D_6      
     e( 11 - 12) =      6.82568  eV     2   --> G_7   D_7      
     e( 13 - 14) =     15.81400  eV     2   --> G_7   D_7      
     e( 15 - 16) =     15.81924  eV     2   --> G_6   D_6      

 **************************************************************************

 **************************************************************************

                    xk=(   0.00000,   0.69532,   0.00000  )

     Band symmetry, C_4v (4mm)  double point group:

     e(  1 -  2) =     -1.86874  eV     2   --> G_6   D_6      
     e(  3 -  4) =     -1.61574  eV     2   --> G_7   D_7      
     e(  5 -  6) =      3.21215  eV     2   --> G_7   D_7      
     e(  7 -  8) =      3.21238  eV     2   --> G_6   D_6      
     e(  9 - 10) =      6.73116  eV     2   --> G_6   D_6      
     e( 11 - 12) =      6.79092  eV     2   --> G_7   D_7      
     e( 13 - 14) =     15.88800  eV     2   --> G_7   D_7      
     e( 15 - 16) =     15.89098  eV     2   --> G_6   D_6      

 **************************************************************************

 **************************************************************************

                    xk=(   0.00000,   0.70711,   0.00000  )

     zone border point and non-symmorphic group 
     symmetry decomposition not available

 **************************************************************************

 **************************************************************************

                    xk=(   0.00295,   0.70711,   0.00295  )

     double point group C_2v (mm2) 
     there are  5 classes and  1 irreducible representations
     the character table:

       E     -E     C2    s_v   s_v'
                   -C2   -s_v  -s_v'
G_5    2.00 -2.00  0.00  0.00  0.00

     the symmetry operations in each class and the name of the first element:

     E             1
                                                                 
     -E           -1
                                                                 
      C2  -C2      2   -2
                                                                 
      s_v -s_v     3   -3
                                                                 
      s_v'-s_v'    4   -4
                                                                 

     Band symmetry, C_2v (mm2)  double point group:

     e(  1 -  2) =     -1.74303  eV     2   --> G_5  D_5       
     e(  3 -  4) =     -1.74278  eV     2   --> G_5  D_5       
     e(  5 -  6) =      3.21015  eV     2   --> G_5  D_5       
     e(  7 -  8) =      3.21133  eV     2   --> G_5  D_5       
     e(  9 - 10) =      6.75955  eV     2   --> G_5  D_5       
     e( 11 - 12) =      6.76096  eV     2   --> G_5  D_5       
     e( 13 - 14) =     15.91444  eV     2   --> G_5  D_5       
     e( 15 - 16) =     15.91537  eV     2   --> G_5  D_5       

 **************************************************************************

 **************************************************************************

                    xk=(   0.00589,   0.70711,   0.00589  )

     Band symmetry, C_2v (mm2)  double point group:

     e(  1 -  2) =     -1.74322  eV     2   --> G_5  D_5       
     e(  3 -  4) =     -1.74230  eV     2   --> G_5  D_5       
     e(  5 -  6) =      3.20709  eV     2   --> G_5  D_5       
     e(  7 -  8) =      3.21169  eV     2   --> G_5  D_5       
     e(  9 - 10) =      6.75997  eV     2   --> G_5  D_5       
     e( 11 - 12) =      6.76551  eV     2   --> G_5  D_5       
     e( 13 - 14) =     15.90959  eV     2   --> G_5  D_5       
     e( 15 - 16) =     15.91264  eV     2   --> G_5  D_5       

 **************************************************************************

 **************************************************************************

                    xk=(   0.00884,   0.70711,   0.00884  )

     Band symmetry, C_2v (mm2)  double point group:

     e(  1 -  2) =     -1.74355  eV     2   --> G_5  D_5       
     e(  3 -  4) =     -1.74149  eV     2   --> G_5  D_5       
     e(  5 -  6) =      3.20203  eV     2   --> G_5  D_5       
     e(  7 -  8) =      3.21229  eV     2   --> G_5  D_5       
     e(  9 - 10) =      6.76065  eV     2   --> G_5  D_5       
     e( 11 - 12) =      6.77308  eV     2   --> G_5  D_5       
     e( 13 - 14) =     15.90158  eV     2   --> G_5  D_5       
     e( 15 - 16) =     15.90810  eV     2   --> G_5  D_5       

 **************************************************************************

 **************************************************************************

                    xk=(   0.01179,   0.70711,   0.01179  )

     Band symmetry, C_2v (mm2)  double point group:

     e(  1 -  2) =     -1.74401  eV     2   --> G_5  D_5       
     e(  3 -  4) =     -1.74035  eV     2   --> G_5  D_5       
     e(  5 -  6) =      3.19498  eV     2   --> G_5  D_5       
     e(  7 -  8) =      3.21313  eV     2   --> G_5  D_5       
     e(  9 - 10) =      6.76162  eV     2   --> G_5  D_5       
     e( 11 - 12) =      6.78363  eV     2   --> G_5  D_5       
     e( 13 - 14) =     15.89045  eV     2   --> G_5  D_5       
     e( 15 - 16) =     15.90176  eV     2   --> G_5  D_5       

 **************************************************************************

 **************************************************************************

                    xk=(   0.01473,   0.70711,   0.01473  )

     Band symmetry, C_2v (mm2)  double point group:

     e(  1 -  2) =     -1.74461  eV     2   --> G_5  D_5       
     e(  3 -  4) =     -1.73889  eV     2   --> G_5  D_5       
     e(  5 -  6) =      3.18598  eV     2   --> G_5  D_5       
     e(  7 -  8) =      3.21420  eV     2   --> G_5  D_5       
     e(  9 - 10) =      6.76285  eV     2   --> G_5  D_5       
     e( 11 - 12) =      6.79713  eV     2   --> G_5  D_5       
     e( 13 - 14) =     15.87630  eV     2   --> G_5  D_5       
     e( 15 - 16) =     15.89365  eV     2   --> G_5  D_5       

 **************************************************************************

 **************************************************************************

                    xk=(   0.01768,   0.70711,   0.01768  )

     Band symmetry, C_2v (mm2)  double point group:

     e(  1 -  2) =     -1.74534  eV     2   --> G_5  D_5       
     e(  3 -  4) =     -1.73711  eV     2   --> G_5  D_5       
     e(  5 -  6) =      3.17509  eV     2   --> G_5  D_5       
     e(  7 -  8) =      3.21552  eV     2   --> G_5  D_5       
     e(  9 - 10) =      6.76437  eV     2   --> G_5  D_5       
     e( 11 - 12) =      6.81353  eV     2   --> G_5  D_5       
     e( 13 - 14) =     15.85922  eV     2   --> G_5  D_5       
     e( 15 - 16) =     15.88381  eV     2   --> G_5  D_5       

 **************************************************************************

 **************************************************************************

                    xk=(   0.02062,   0.70711,   0.02062  )

     Band symmetry, C_2v (mm2)  double point group:

     e(  1 -  2) =     -1.74621  eV     2   --> G_5  D_5       
     e(  3 -  4) =     -1.73500  eV     2   --> G_5  D_5       
     e(  5 -  6) =      3.16237  eV     2   --> G_5  D_5       
     e(  7 -  8) =      3.21708  eV     2   --> G_5  D_5       
     e(  9 - 10) =      6.76615  eV     2   --> G_5  D_5       
     e( 11 - 12) =      6.83277  eV     2   --> G_5  D_5       
     e( 13 - 14) =     15.83936  eV     2   --> G_5  D_5       
     e( 15 - 16) =     15.87226  eV     2   --> G_5  D_5       

 **************************************************************************

 **************************************************************************

                    xk=(   0.02357,   0.70711,   0.02357  )

     Band symmetry, C_2v (mm2)  double point group:

     e(  1 -  2) =     -1.74721  eV     2   --> G_5  D_5       
     e(  3 -  4) =     -1.73257  eV     2   --> G_5  D_5       
     e(  5 -  6) =      3.14789  eV     2   --> G_5  D_5       
     e(  7 -  8) =      3.21887  eV     2   --> G_5  D_5       
     e(  9 - 10) =      6.76822  eV     2   --> G_5  D_5       
     e( 11 - 12) =      6.85478  eV     2   --> G_5  D_5       
     e( 13 - 14) =     15.81682  eV     2   --> G_5  D_5       
     e( 15 - 16) =     15.85905  eV     2   --> G_5  D_5       

 **************************************************************************

 **************************************************************************

                    xk=(   0.02652,   0.70711,   0.02652  )

     Band symmetry, C_2v (mm2)  double point group:

     e(  1 -  2) =     -1.74837  eV     2   --> G_5  D_5       
     e(  3 -  4) =     -1.72981  eV     2   --> G_5  D_5       
     e(  5 -  6) =      3.13171  eV     2   --> G_5  D_5       
     e(  7 -  8) =      3.22090  eV     2   --> G_5  D_5       
     e(  9 - 10) =      6.77055  eV     2   --> G_5  D_5       
     e( 11 - 12) =      6.87949  eV     2   --> G_5  D_5       
     e( 13 - 14) =     15.79177  eV     2   --> G_5  D_5       
     e( 15 - 16) =     15.84423  eV     2   --> G_5  D_5       

 **************************************************************************

 **************************************************************************

                    xk=(   0.02946,   0.70711,   0.02946  )

     Band symmetry, C_2v (mm2)  double point group:

     e(  1 -  2) =     -1.74966  eV     2   --> G_5  D_5       
     e(  3 -  4) =     -1.72673  eV     2   --> G_5  D_5       
     e(  5 -  6) =      3.11392  eV     2   --> G_5  D_5       
     e(  7 -  8) =      3.22318  eV     2   --> G_5  D_5       
     e(  9 - 10) =      6.77316  eV     2   --> G_5  D_5       
     e( 11 - 12) =      6.90683  eV     2   --> G_5  D_5       
     e( 13 - 14) =     15.76436  eV     2   --> G_5  D_5       
     e( 15 - 16) =     15.82786  eV     2   --> G_5  D_5       

 **************************************************************************

 **************************************************************************

                    xk=(   0.03241,   0.70711,   0.03241  )

     Band symmetry, C_2v (mm2)  double point group:

     e(  1 -  2) =     -1.75111  eV     2   --> G_5  D_5       
     e(  3 -  4) =     -1.72332  eV     2   --> G_5  D_5       
     e(  5 -  6) =      3.09462  eV     2   --> G_5  D_5       
     e(  7 -  8) =      3.22569  eV     2   --> G_5  D_5       
     e(  9 - 10) =      6.77604  eV     2   --> G_5  D_5       
     e( 11 - 12) =      6.93671  eV     2   --> G_5  D_5       
     e( 13 - 14) =     15.73472  eV     2   --> G_5  D_5       
     e( 15 - 16) =     15.80997  eV     2   --> G_5  D_5       

 **************************************************************************

 **************************************************************************

                    xk=(   0.03536,   0.70711,   0.03536  )

     Band symmetry, C_2v (mm2)  double point group:

     e(  1 -  2) =     -1.75272  eV     2   --> G_5  D_5       
     e(  3 -  4) =     -1.71960  eV     2   --> G_5  D_5       
     e(  5 -  6) =      3.07387  eV     2   --> G_5  D_5       
     e(  7 -  8) =      3.22843  eV     2   --> G_5  D_5       
     e(  9 - 10) =      6.77920  eV     2   --> G_5  D_5       
     e( 11 - 12) =      6.96904  eV     2   --> G_5  D_5       
     e( 13 - 14) =     15.70301  eV     2   --> G_5  D_5       
     e( 15 - 16) =     15.79063  eV     2   --> G_5  D_5       

 **************************************************************************

 **************************************************************************

                    xk=(   0.03830,   0.70711,   0.03830  )

     Band symmetry, C_2v (mm2)  double point group:

     e(  1 -  2) =     -1.75448  eV     2   --> G_5  D_5       
     e(  3 -  4) =     -1.71554  eV     2   --> G_5  D_5       
     e(  5 -  6) =      3.05179  eV     2   --> G_5  D_5       
     e(  7 -  8) =      3.23142  eV     2   --> G_5  D_5       
     e(  9 - 10) =      6.78263  eV     2   --> G_5  D_5       
     e( 11 - 12) =      7.00375  eV     2   --> G_5  D_5       
     e( 13 - 14) =     15.66939  eV     2   --> G_5  D_5       
     e( 15 - 16) =     15.76990  eV     2   --> G_5  D_5       

 **************************************************************************

 **************************************************************************

                    xk=(   0.04125,   0.70711,   0.04125  )

     Band symmetry, C_2v (mm2)  double point group:

     e(  1 -  2) =     -1.75640  eV     2   --> G_5  D_5       
     e(  3 -  4) =     -1.71117  eV     2   --> G_5  D_5       
     e(  5 -  6) =      3.02845  eV     2   --> G_5  D_5       
     e(  7 -  8) =      3.23464  eV     2   --> G_5  D_5       
     e(  9 - 10) =      6.78634  eV     2   --> G_5  D_5       
     e( 11 - 12) =      7.04073  eV     2   --> G_5  D_5       
     e( 13 - 14) =     15.63399  eV     2   --> G_5  D_5       
     e( 15 - 16) =     15.74783  eV     2   --> G_5  D_5       

 **************************************************************************

 **************************************************************************

                    xk=(   0.04419,   0.70711,   0.04419  )

     Band symmetry, C_2v (mm2)  double point group:

     e(  1 -  2) =     -1.75850  eV     2   --> G_5  D_5       
     e(  3 -  4) =     -1.70646  eV     2   --> G_5  D_5       
     e(  5 -  6) =      3.00396  eV     2   --> G_5  D_5       
     e(  7 -  8) =      3.23811  eV     2   --> G_5  D_5       
     e(  9 - 10) =      6.79031  eV     2   --> G_5  D_5       
     e( 11 - 12) =      7.07990  eV     2   --> G_5  D_5       
     e( 13 - 14) =     15.59695  eV     2   --> G_5  D_5       
     e( 15 - 16) =     15.72449  eV     2   --> G_5  D_5       

 **************************************************************************

 **************************************************************************

                    xk=(   0.04714,   0.70711,   0.04714  )

     Band symmetry, C_2v (mm2)  double point group:

     e(  1 -  2) =     -1.76076  eV     2   --> G_5  D_5       
     e(  3 -  4) =     -1.70144  eV     2   --> G_5  D_5       
     e(  5 -  6) =      2.97840  eV     2   --> G_5  D_5       
     e(  7 -  8) =      3.24180  eV     2   --> G_5  D_5       
     e(  9 - 10) =      6.79456  eV     2   --> G_5  D_5       
     e( 11 - 12) =      7.12118  eV     2   --> G_5  D_5       
     e( 13 - 14) =     15.55840  eV     2   --> G_5  D_5       
     e( 15 - 16) =     15.69993  eV     2   --> G_5  D_5       

 **************************************************************************

 **************************************************************************

                    xk=(   0.05009,   0.70711,   0.05009  )

     Band symmetry, C_2v (mm2)  double point group:

     e(  1 -  2) =     -1.76321  eV     2   --> G_5  D_5       
     e(  3 -  4) =     -1.69609  eV     2   --> G_5  D_5       
     e(  5 -  6) =      2.95188  eV     2   --> G_5  D_5       
     e(  7 -  8) =      3.24574  eV     2   --> G_5  D_5       
     e(  9 - 10) =      6.79909  eV     2   --> G_5  D_5       
     e( 11 - 12) =      7.16447  eV     2   --> G_5  D_5       
     e( 13 - 14) =     15.51846  eV     2   --> G_5  D_5       
     e( 15 - 16) =     15.67422  eV     2   --> G_5  D_5       

 **************************************************************************

 **************************************************************************

                    xk=(   0.05303,   0.70711,   0.05303  )

     Band symmetry, C_2v (mm2)  double point group:

     e(  1 -  2) =     -1.76585  eV     2   --> G_5  D_5       
     e(  3 -  4) =     -1.69042  eV     2   --> G_5  D_5       
     e(  5 -  6) =      2.92447  eV     2   --> G_5  D_5       
     e(  7 -  8) =      3.24991  eV     2   --> G_5  D_5       
     e(  9 - 10) =      6.80388  eV     2   --> G_5  D_5       
     e( 11 - 12) =      7.20969  eV     2   --> G_5  D_5       
     e( 13 - 14) =     15.47726  eV     2   --> G_5  D_5       
     e( 15 - 16) =     15.64741  eV     2   --> G_5  D_5       

 **************************************************************************

 **************************************************************************

                    xk=(   0.05598,   0.70711,   0.05598  )

     Band symmetry, C_2v (mm2)  double point group:

     e(  1 -  2) =     -1.76867  eV     2   --> G_5  D_5       
     e(  3 -  4) =     -1.68442  eV     2   --> G_5  D_5       
     e(  5 -  6) =      2.89627  eV     2   --> G_5  D_5       
     e(  7 -  8) =      3.25432  eV     2   --> G_5  D_5       
     e(  9 - 10) =      6.80894  eV     2   --> G_5  D_5       
     e( 11 - 12) =      7.25676  eV     2   --> G_5  D_5       
     e( 13 - 14) =     15.43490  eV     2   --> G_5  D_5       
     e( 15 - 16) =     15.61956  eV     2   --> G_5  D_5       

 **************************************************************************

 **************************************************************************

                    xk=(   0.05893,   0.70711,   0.05893  )

     Band symmetry, C_2v (mm2)  double point group:

     e(  1 -  2) =     -1.77170  eV     2   --> G_5  D_5       
     e(  3 -  4) =     -1.67810  eV     2   --> G_5  D_5       
     e(  5 -  6) =      2.86737  eV     2   --> G_5  D_5       
     e(  7 -  8) =      3.25896  eV     2   --> G_5  D_5       
     e(  9 - 10) =      6.81428  eV     2   --> G_5  D_5       
     e( 11 - 12) =      7.30560  eV     2   --> G_5  D_5       
     e( 13 - 14) =     15.39148  eV     2   --> G_5  D_5       
     e( 15 - 16) =     15.59072  eV     2   --> G_5  D_5       

 **************************************************************************

 **************************************************************************

                    xk=(   0.06187,   0.70711,   0.06187  )

     Band symmetry, C_2v (mm2)  double point group:

     e(  1 -  2) =     -1.77493  eV     2   --> G_5  D_5       
     e(  3 -  4) =     -1.67146  eV     2   --> G_5  D_5       
     e(  5 -  6) =      2.83784  eV     2   --> G_5  D_5       
     e(  7 -  8) =      3.26384  eV     2   --> G_5  D_5       
     e(  9 - 10) =      6.81989  eV     2   --> G_5  D_5       
     e( 11 - 12) =      7.35613  eV     2   --> G_5  D_5       
     e( 13 - 14) =     15.34710  eV     2   --> G_5  D_5       
     e( 15 - 16) =     15.56096  eV     2   --> G_5  D_5       

 **************************************************************************

 **************************************************************************

                    xk=(   0.06482,   0.70711,   0.06482  )

     Band symmetry, C_2v (mm2)  double point group:

     e(  1 -  2) =     -1.77838  eV     2   --> G_5  D_5       
     e(  3 -  4) =     -1.66449  eV     2   --> G_5  D_5       
     e(  5 -  6) =      2.80777  eV     2   --> G_5  D_5       
     e(  7 -  8) =      3.26895  eV     2   --> G_5  D_5       
     e(  9 - 10) =      6.82576  eV     2   --> G_5  D_5       
     e( 11 - 12) =      7.40828  eV     2   --> G_5  D_5       
     e( 13 - 14) =     15.30185  eV     2   --> G_5  D_5       
     e( 15 - 16) =     15.53032  eV     2   --> G_5  D_5       

 **************************************************************************

 **************************************************************************

                    xk=(   0.06776,   0.70711,   0.06776  )

     Band symmetry, C_2v (mm2)  double point group:

     e(  1 -  2) =     -1.78205  eV     2   --> G_5  D_5       
     e(  3 -  4) =     -1.65720  eV     2   --> G_5  D_5       
     e(  5 -  6) =      2.77725  eV     2   --> G_5  D_5       
     e(  7 -  8) =      3.27430  eV     2   --> G_5  D_5       
     e(  9 - 10) =      6.83191  eV     2   --> G_5  D_5       
     e( 11 - 12) =      7.46197  eV     2   --> G_5  D_5       
     e( 13 - 14) =     15.25579  eV     2   --> G_5  D_5       
     e( 15 - 16) =     15.49886  eV     2   --> G_5  D_5       

 **************************************************************************

 **************************************************************************

                    xk=(   0.07071,   0.70711,   0.07071  )

     Band symmetry, C_2v (mm2)  double point group:

     e(  1 -  2) =     -1.78595  eV     2   --> G_5  D_5       
     e(  3 -  4) =     -1.64958  eV     2   --> G_5  D_5       
     e(  5 -  6) =      2.74633  eV     2   --> G_5  D_5       
     e(  7 -  8) =      3.27988  eV     2   --> G_5  D_5       
     e(  9 - 10) =      6.83832  eV     2   --> G_5  D_5       
     e( 11 - 12) =      7.51713  eV     2   --> G_5  D_5       
     e( 13 - 14) =     15.20902  eV     2   --> G_5  D_5       
     e( 15 - 16) =     15.46662  eV     2   --> G_5  D_5       

 **************************************************************************

 **************************************************************************

                    xk=(   0.07366,   0.70711,   0.07366  )

     Band symmetry, C_2v (mm2)  double point group:

     e(  1 -  2) =     -1.79009  eV     2   --> G_5  D_5       
     e(  3 -  4) =     -1.64164  eV     2   --> G_5  D_5       
     e(  5 -  6) =      2.71510  eV     2   --> G_5  D_5       
     e(  7 -  8) =      3.28569  eV     2   --> G_5  D_5       
     e(  9 - 10) =      6.84501  eV     2   --> G_5  D_5       
     e( 11 - 12) =      7.57371  eV     2   --> G_5  D_5       
     e( 13 - 14) =     15.16160  eV     2   --> G_5  D_5       
     e( 15 - 16) =     15.43366  eV     2   --> G_5  D_5       

 **************************************************************************

 **************************************************************************

                    xk=(   0.07660,   0.70711,   0.07660  )

     Band symmetry, C_2v (mm2)  double point group:

     e(  1 -  2) =     -1.79447  eV     2   --> G_5  D_5       
     e(  3 -  4) =     -1.63338  eV     2   --> G_5  D_5       
     e(  5 -  6) =      2.68363  eV     2   --> G_5  D_5       
     e(  7 -  8) =      3.29174  eV     2   --> G_5  D_5       
     e(  9 - 10) =      6.85196  eV     2   --> G_5  D_5       
     e( 11 - 12) =      7.63164  eV     2   --> G_5  D_5       
     e( 13 - 14) =     15.11358  eV     2   --> G_5  D_5       
     e( 15 - 16) =     15.40001  eV     2   --> G_5  D_5       

 **************************************************************************

 **************************************************************************

                    xk=(   0.07955,   0.70711,   0.07955  )

     Band symmetry, C_2v (mm2)  double point group:

     e(  1 -  2) =     -1.79912  eV     2   --> G_5  D_5       
     e(  3 -  4) =     -1.62480  eV     2   --> G_5  D_5       
     e(  5 -  6) =      2.65198  eV     2   --> G_5  D_5       
     e(  7 -  8) =      3.29802  eV     2   --> G_5  D_5       
     e(  9 - 10) =      6.85917  eV     2   --> G_5  D_5       
     e( 11 - 12) =      7.69086  eV     2   --> G_5  D_5       
     e( 13 - 14) =     15.06504  eV     2   --> G_5  D_5       
     e( 15 - 16) =     15.36572  eV     2   --> G_5  D_5       

 **************************************************************************

 **************************************************************************

                    xk=(   0.08250,   0.70711,   0.08250  )

     Band symmetry, C_2v (mm2)  double point group:

     e(  1 -  2) =     -1.80402  eV     2   --> G_5  D_5       
     e(  3 -  4) =     -1.61589  eV     2   --> G_5  D_5       
     e(  5 -  6) =      2.62021  eV     2   --> G_5  D_5       
     e(  7 -  8) =      3.30452  eV     2   --> G_5  D_5       
     e(  9 - 10) =      6.86666  eV     2   --> G_5  D_5       
     e( 11 - 12) =      7.75132  eV     2   --> G_5  D_5       
     e( 13 - 14) =     15.01602  eV     2   --> G_5  D_5       
     e( 15 - 16) =     15.33084  eV     2   --> G_5  D_5       

 **************************************************************************

 **************************************************************************

                    xk=(   0.08544,   0.70711,   0.08544  )

     Band symmetry, C_2v (mm2)  double point group:

     e(  1 -  2) =     -1.80921  eV     2   --> G_5  D_5       
     e(  3 -  4) =     -1.60666  eV     2   --> G_5  D_5       
     e(  5 -  6) =      2.58839  eV     2   --> G_5  D_5       
     e(  7 -  8) =      3.31127  eV     2   --> G_5  D_5       
     e(  9 - 10) =      6.87441  eV     2   --> G_5  D_5       
     e( 11 - 12) =      7.81296  eV     2   --> G_5  D_5       
     e( 13 - 14) =     14.96657  eV     2   --> G_5  D_5       
     e( 15 - 16) =     15.29540  eV     2   --> G_5  D_5       

 **************************************************************************

 **************************************************************************

                    xk=(   0.08839,   0.70711,   0.08839  )

     Band symmetry, C_2v (mm2)  double point group:

     e(  1 -  2) =     -1.81468  eV     2   --> G_5  D_5       
     e(  3 -  4) =     -1.59710  eV     2   --> G_5  D_5       
     e(  5 -  6) =      2.55657  eV     2   --> G_5  D_5       
     e(  7 -  8) =      3.31824  eV     2   --> G_5  D_5       
     e(  9 - 10) =      6.88242  eV     2   --> G_5  D_5       
     e( 11 - 12) =      7.87573  eV     2   --> G_5  D_5       
     e( 13 - 14) =     14.91674  eV     2   --> G_5  D_5       
     e( 15 - 16) =     15.25944  eV     2   --> G_5  D_5       

 **************************************************************************

 **************************************************************************

                    xk=(   0.09133,   0.70711,   0.09133  )

     Band symmetry, C_2v (mm2)  double point group:

     e(  1 -  2) =     -1.82044  eV     2   --> G_5  D_5       
     e(  3 -  4) =     -1.58723  eV     2   --> G_5  D_5       
     e(  5 -  6) =      2.52482  eV     2   --> G_5  D_5       
     e(  7 -  8) =      3.32544  eV     2   --> G_5  D_5       
     e(  9 - 10) =      6.89070  eV     2   --> G_5  D_5       
     e( 11 - 12) =      7.93959  eV     2   --> G_5  D_5       
     e( 13 - 14) =     14.86658  eV     2   --> G_5  D_5       
     e( 15 - 16) =     15.22299  eV     2   --> G_5  D_5       

 **************************************************************************

 **************************************************************************

                    xk=(   0.09428,   0.70711,   0.09428  )

     Band symmetry, C_2v (mm2)  double point group:

     e(  1 -  2) =     -1.82651  eV     2   --> G_5  D_5       
     e(  3 -  4) =     -1.57703  eV     2   --> G_5  D_5       
     e(  5 -  6) =      2.49317  eV     2   --> G_5  D_5       
     e(  7 -  8) =      3.33286  eV     2   --> G_5  D_5       
     e(  9 - 10) =      6.89925  eV     2   --> G_5  D_5       
     e( 11 - 12) =      8.00449  eV     2   --> G_5  D_5       
     e( 13 - 14) =     14.81611  eV     2   --> G_5  D_5       
     e( 15 - 16) =     15.18609  eV     2   --> G_5  D_5       

 **************************************************************************

 **************************************************************************

                    xk=(   0.09723,   0.70711,   0.09723  )

     Band symmetry, C_2v (mm2)  double point group:

     e(  1 -  2) =     -1.83289  eV     2   --> G_5  D_5       
     e(  3 -  4) =     -1.56650  eV     2   --> G_5  D_5       
     e(  5 -  6) =      2.46169  eV     2   --> G_5  D_5       
     e(  7 -  8) =      3.34052  eV     2   --> G_5  D_5       
     e(  9 - 10) =      6.90805  eV     2   --> G_5  D_5       
     e( 11 - 12) =      8.07040  eV     2   --> G_5  D_5       
     e( 13 - 14) =     14.76538  eV     2   --> G_5  D_5       
     e( 15 - 16) =     15.14877  eV     2   --> G_5  D_5       

 **************************************************************************

 **************************************************************************

                    xk=(   0.10017,   0.70711,   0.10017  )

[...]
     e(  3 -  4) =     -1.53542  eV     2   --> G_3            
     e(  3 -  4) =     -1.53542  eV     2   --> G_4            
     e(  5 -  6) =      2.20606  eV     2   --> G_3            
     e(  5 -  6) =      2.20606  eV     2   --> G_4            
     e(  7 -  8) =      2.28671  eV     2   --> G_3            
     e(  7 -  8) =      2.28671  eV     2   --> G_4            
     e(  9 - 10) =     10.24032  eV     2   --> G_3            
     e(  9 - 10) =     10.24032  eV     2   --> G_4            
     e( 11 - 12) =     10.31857  eV     2   --> G_3            
     e( 11 - 12) =     10.31857  eV     2   --> G_4            
     e( 13 - 14) =     10.88877  eV     2   --> G_3            
     e( 13 - 14) =     10.88877  eV     2   --> G_4            
     e( 15 - 16) =     10.97892  eV     2   --> G_3            
     e( 15 - 16) =     10.97892  eV     2   --> G_4            

 **************************************************************************

 **************************************************************************

                    xk=(   0.35355,   0.70711,   0.00000  )

     zone border point and non-symmorphic group 
     symmetry decomposition not available

 **************************************************************************

 **************************************************************************

                    xk=(   0.34766,   0.70711,   0.00000  )

     zone border point and non-symmorphic group 
     symmetry decomposition not available

 **************************************************************************

 **************************************************************************

                    xk=(   0.34177,   0.70711,   0.00000  )

     zone border point and non-symmorphic group 
     symmetry decomposition not available

 **************************************************************************

 **************************************************************************

                    xk=(   0.33588,   0.70711,   0.00000  )

     zone border point and non-symmorphic group 
     symmetry decomposition not available

 **************************************************************************

 **************************************************************************

                    xk=(   0.32998,   0.70711,   0.00000  )

     zone border point and non-symmorphic group 
     symmetry decomposition not available

 **************************************************************************

 **************************************************************************

                    xk=(   0.32409,   0.70711,   0.00000  )

     zone border point and non-symmorphic group 
     symmetry decomposition not available

 **************************************************************************

 **************************************************************************

                    xk=(   0.31820,   0.70711,   0.00000  )

     zone border point and non-symmorphic group 
     symmetry decomposition not available

 **************************************************************************

 **************************************************************************

                    xk=(   0.31231,   0.70711,   0.00000  )

     zone border point and non-symmorphic group 
     symmetry decomposition not available

 **************************************************************************

 **************************************************************************

                    xk=(   0.30641,   0.70711,   0.00000  )

     zone border point and non-symmorphic group 
     symmetry decomposition not available

 **************************************************************************

 **************************************************************************

                    xk=(   0.30052,   0.70711,   0.00000  )

     zone border point and non-symmorphic group 
     symmetry decomposition not available

 **************************************************************************

 **************************************************************************

                    xk=(   0.29463,   0.70711,  -0.00000  )

     zone border point and non-symmorphic group 
     symmetry decomposition not available

 **************************************************************************

 **************************************************************************

                    xk=(   0.28874,   0.70711,   0.00000  )

     zone border point and non-symmorphic group 
     symmetry decomposition not available

 **************************************************************************

 **************************************************************************

                    xk=(   0.28284,   0.70711,   0.00000  )

     zone border point and non-symmorphic group 
     symmetry decomposition not available

 **************************************************************************

 **************************************************************************

                    xk=(   0.27695,   0.70711,   0.00000  )

     zone border point and non-symmorphic group 
     symmetry decomposition not available

 **************************************************************************

 **************************************************************************

                    xk=(   0.27106,   0.70711,   0.00000  )

     zone border point and non-symmorphic group 
     symmetry decomposition not available

 **************************************************************************

 **************************************************************************

                    xk=(   0.26517,   0.70711,   0.00000  )

     zone border point and non-symmorphic group 
     symmetry decomposition not available

 **************************************************************************

 **************************************************************************

                    xk=(   0.25927,   0.70711,  -0.00000  )

     zone border point and non-symmorphic group 
     symmetry decomposition not available

 **************************************************************************

 **************************************************************************

                    xk=(   0.25338,   0.70711,   0.00000  )

     zone border point and non-symmorphic group 
     symmetry decomposition not available

 **************************************************************************

 **************************************************************************

                    xk=(   0.24749,   0.70711,   0.00000  )

     zone border point and non-symmorphic group 
     symmetry decomposition not available

 **************************************************************************

 **************************************************************************

                    xk=(   0.24159,   0.70711,  -0.00000  )

     zone border point and non-symmorphic group 
     symmetry decomposition not available

 **************************************************************************

 **************************************************************************

                    xk=(   0.23570,   0.70711,   0.00000  )

     zone border point and non-symmorphic group 
     symmetry decomposition not available

 **************************************************************************

 **************************************************************************

                    xk=(   0.22981,   0.70711,   0.00000  )

     zone border point and non-symmorphic group 
     symmetry decomposition not available

 **************************************************************************

 **************************************************************************

                    xk=(   0.22392,   0.70711,   0.00000  )

     zone border point and non-symmorphic group 
     symmetry decomposition not available

 **************************************************************************

 **************************************************************************

                    xk=(   0.21802,   0.70711,   0.00000  )

     zone border point and non-symmorphic group 
     symmetry decomposition not available

 **************************************************************************

 **************************************************************************

                    xk=(   0.21213,   0.70711,   0.00000  )

     zone border point and non-symmorphic group 
     symmetry decomposition not available

 **************************************************************************

 **************************************************************************

                    xk=(   0.20624,   0.70711,  -0.00000  )

     zone border point and non-symmorphic group 
     symmetry decomposition not available

 **************************************************************************

 **************************************************************************

                    xk=(   0.20035,   0.70711,   0.00000  )

     zone border point and non-symmorphic group 
     symmetry decomposition not available

 **************************************************************************

 **************************************************************************

                    xk=(   0.19445,   0.70711,   0.00000  )

     zone border point and non-symmorphic group 
     symmetry decomposition not available

 **************************************************************************

 **************************************************************************

                    xk=(   0.18856,   0.70711,   0.00000  )

     zone border point and non-symmorphic group 
     symmetry decomposition not available

 **************************************************************************

 **************************************************************************

                    xk=(   0.18267,   0.70711,   0.00000  )

     zone border point and non-symmorphic group 
     symmetry decomposition not available

 **************************************************************************

 **************************************************************************

                    xk=(   0.17678,   0.70711,   0.00000  )

     zone border point and non-symmorphic group 
     symmetry decomposition not available

 **************************************************************************

 **************************************************************************

                    xk=(   0.17088,   0.70711,   0.00000  )

     zone border point and non-symmorphic group 
     symmetry decomposition not available

 **************************************************************************

 **************************************************************************

                    xk=(   0.16499,   0.70711,   0.00000  )

     zone border point and non-symmorphic group 
     symmetry decomposition not available

 **************************************************************************

 **************************************************************************

                    xk=(   0.15910,   0.70711,   0.00000  )

     zone border point and non-symmorphic group 
     symmetry decomposition not available

 **************************************************************************

 **************************************************************************

                    xk=(   0.15321,   0.70711,  -0.00000  )

     zone border point and non-symmorphic group 
     symmetry decomposition not available

 **************************************************************************

 **************************************************************************

                    xk=(   0.14731,   0.70711,   0.00000  )

     zone border point and non-symmorphic group 
     symmetry decomposition not available

 **************************************************************************

 **************************************************************************

                    xk=(   0.14142,   0.70711,   0.00000  )

     zone border point and non-symmorphic group 
     symmetry decomposition not available

 **************************************************************************

 **************************************************************************

                    xk=(   0.13553,   0.70711,   0.00000  )

     zone border point and non-symmorphic group 
     symmetry decomposition not available

 **************************************************************************

 **************************************************************************

                    xk=(   0.12964,   0.70711,   0.00000  )

     zone border point and non-symmorphic group 
     symmetry decomposition not available

 **************************************************************************

 **************************************************************************

                    xk=(   0.12374,   0.70711,  -0.00000  )

     zone border point and non-symmorphic group 
     symmetry decomposition not available

 **************************************************************************

 **************************************************************************

                    xk=(   0.11785,   0.70711,   0.00000  )

     zone border point and non-symmorphic group 
     symmetry decomposition not available

 **************************************************************************

 **************************************************************************

                    xk=(   0.11196,   0.70711,   0.00000  )

     zone border point and non-symmorphic group 
     symmetry decomposition not available

 **************************************************************************

 **************************************************************************

                    xk=(   0.10607,   0.70711,   0.00000  )

     zone border point and non-symmorphic group 
     symmetry decomposition not available

 **************************************************************************

 **************************************************************************

                    xk=(   0.10017,   0.70711,   0.00000  )

     zone border point and non-symmorphic group 
     symmetry decomposition not available

 **************************************************************************

 **************************************************************************

                    xk=(   0.09428,   0.70711,   0.00000  )

     zone border point and non-symmorphic group 
     symmetry decomposition not available

 **************************************************************************

 **************************************************************************

                    xk=(   0.08839,   0.70711,   0.00000  )

     zone border point and non-symmorphic group 
     symmetry decomposition not available

 **************************************************************************

 **************************************************************************

                    xk=(   0.08250,   0.70711,   0.00000  )

     zone border point and non-symmorphic group 
     symmetry decomposition not available

 **************************************************************************

 **************************************************************************

                    xk=(   0.07660,   0.70711,   0.00000  )

     zone border point and non-symmorphic group 
     symmetry decomposition not available

 **************************************************************************

 **************************************************************************

                    xk=(   0.07071,   0.70711,  -0.00000  )

     zone border point and non-symmorphic group 
     symmetry decomposition not available

 **************************************************************************

 **************************************************************************

                    xk=(   0.06482,   0.70711,  -0.00000  )

     zone border point and non-symmorphic group 
     symmetry decomposition not available

 **************************************************************************

 **************************************************************************

                    xk=(   0.05893,   0.70711,   0.00000  )

     zone border point and non-symmorphic group 
     symmetry decomposition not available

 **************************************************************************

 **************************************************************************

                    xk=(   0.05303,   0.70711,   0.00000  )

     zone border point and non-symmorphic group 
     symmetry decomposition not available

 **************************************************************************

 **************************************************************************

                    xk=(   0.04714,   0.70711,   0.00000  )

     zone border point and non-symmorphic group 
     symmetry decomposition not available

 **************************************************************************

 **************************************************************************

                    xk=(   0.04125,   0.70711,   0.00000  )

     zone border point and non-symmorphic group 
     symmetry decomposition not available

 **************************************************************************

 **************************************************************************

                    xk=(   0.03536,   0.70711,   0.00000  )

     zone border point and non-symmorphic group 
     symmetry decomposition not available

 **************************************************************************

 **************************************************************************

                    xk=(   0.02946,   0.70711,  -0.00000  )

     zone border point and non-symmorphic group 
     symmetry decomposition not available

 **************************************************************************

 **************************************************************************

                    xk=(   0.02357,   0.70711,   0.00000  )

     zone border point and non-symmorphic group 
     symmetry decomposition not available

 **************************************************************************

 **************************************************************************

                    xk=(   0.01768,   0.70711,   0.00000  )

     zone border point and non-symmorphic group 
     symmetry decomposition not available

 **************************************************************************

 **************************************************************************

                    xk=(   0.01179,   0.70711,   0.00000  )

     zone border point and non-symmorphic group 
     symmetry decomposition not available

 **************************************************************************

 **************************************************************************

                    xk=(   0.00589,   0.70711,   0.00000  )

     zone border point and non-symmorphic group 
     symmetry decomposition not available

 **************************************************************************

 **************************************************************************

                    xk=(   0.00000,   0.70711,   0.00000  )

     zone border point and non-symmorphic group 
     symmetry decomposition not available

 **************************************************************************
 
     BANDS        :  1m13.65s CPU     1m15.65s WALL

 
   This run was terminated on:  16:22:50   8Apr2020            

=------------------------------------------------------------------------------=
   JOB DONE.
=------------------------------------------------------------------------------=
