mpijob CMD    : mpirun -f /tmp/mpiexec.params.k050801.106120
mpijob PARAMS : -d /home/k0508/k050801/qeirreps/ver_5/qeirreps/reference/Si_soc
        r1i6n18 24 omplace -nt 1 "/home/k0508/k050801/qe-6.6/bin/pw.x"

SGI MPT Placement option
--------------------------
omplace -nt 1

Node   MPI
------------
r1i6n18 24


     Program PWSCF v.6.6 starts on 29Nov2020 at 21:21: 7 

     This program is part of the open-source Quantum ESPRESSO suite
     for quantum simulation of materials; please cite
         "P. Giannozzi et al., J. Phys.:Condens. Matter 21 395502 (2009);
         "P. Giannozzi et al., J. Phys.:Condens. Matter 29 465901 (2017);
          URL http://www.quantum-espresso.org", 
     in publications or presentations arising from this work. More details at
     http://www.quantum-espresso.org/quote

     Parallel version (MPI), running on    24 processors

     MPI processes distributed on     1 nodes
     R & G space division:  proc/nbgrp/npool/nimage =      24
     Fft bands division:     nmany     =       1
     Waiting for input...
     Reading input from standard input

     Current dimensions of program PWSCF are:
     Max number of different atomic species (ntypx) = 10
     Max number of k-points (npk) =  40000
     Max angular momentum in pseudopotentials (lmaxx) =  3

     Subspace diagonalization in iterative solution of the eigenvalue problem:
     a serial algorithm will be used

     Message from routine setup:
     using ibrav=0 with symmetry is DISCOURAGED, use correct ibrav instead
 
     Parallelization info
     --------------------
     sticks:   dense  smooth     PW     G-vecs:    dense   smooth      PW
     Min          61      61     18                 1553     1553     241
     Max          62      62     19                 1556     1556     244
     Sum        1483    1483    433                37309    37309    5817
 


     bravais-lattice index     =            0
     lattice parameter (alat)  =       7.3086  a.u.
     unit-cell volume          =     276.0515 (a.u.)^3
     number of atoms/cell      =            2
     number of atomic types    =            1
     number of electrons       =         8.00
     number of Kohn-Sham states=           16
     kinetic-energy cutoff     =     100.0000  Ry
     charge density cutoff     =     400.0000  Ry
     convergence threshold     =      1.0E-08
     mixing beta               =       0.3000
     number of iterations used =            8  plain     mixing
     Exchange-correlation= PBE
                           (   1   4   3   4   0   0   0)
     Non magnetic calculation with spin-orbit


     celldm(1)=   7.308615  celldm(2)=   0.000000  celldm(3)=   0.000000
     celldm(4)=   0.000000  celldm(5)=   0.000000  celldm(6)=   0.000000

     crystal axes: (cart. coord. in units of alat)
               a(1) = (   0.000000   0.707107   0.707107 )  
               a(2) = (   0.707107   0.000000   0.707107 )  
               a(3) = (   0.707107   0.707107   0.000000 )  

     reciprocal axes: (cart. coord. in units 2 pi/alat)
               b(1) = ( -0.707107  0.707107  0.707107 )  
               b(2) = (  0.707107 -0.707107  0.707107 )  
               b(3) = (  0.707107  0.707107 -0.707107 )  


     PseudoPot. # 1 for Si read from file:
     ../../pseudo/soc/Si.upf
     MD5 check sum: d8e8ea3dd55db7858206a05f373c9c65
     Pseudo is Norm-conserving + core correction, Zval =  4.0
     Generated using ONCVPSP code by D. R. Hamann
     Using radial grid of 1528 points, 10 beta functions with: 
                l(1) =   0
                l(2) =   0
                l(3) =   1
                l(4) =   1
                l(5) =   1
                l(6) =   1
                l(7) =   2
                l(8) =   2
                l(9) =   2
               l(10) =   2

     atomic species   valence    mass     pseudopotential
        Si             4.00    28.08550     Si( 1.00)

     48 Sym. Ops., with inversion, found (36 have fractional translation)



   Cartesian axes

     site n.     atom                  positions (alat units)
         1           Si  tau(   1) = (   0.8838835   0.8838835   0.8838835  )
         2           Si  tau(   2) = (   0.5303301   0.5303301   0.5303301  )

     number of k points=    29  Methfessel-Paxton smearing, width (Ry)=  0.0100
                       cart. coord. in units 2pi/alat
        k(    1) = (   0.0000000   0.0000000   0.0000000), wk =   0.0019531
        k(    2) = (   0.0883883   0.0883883  -0.0883883), wk =   0.0156250
        k(    3) = (   0.1767767   0.1767767  -0.1767767), wk =   0.0156250
        k(    4) = (   0.2651650   0.2651650  -0.2651650), wk =   0.0156250
        k(    5) = (  -0.3535534  -0.3535534   0.3535534), wk =   0.0078125
        k(    6) = (   0.1767767   0.0000000   0.0000000), wk =   0.0117188
        k(    7) = (   0.2651650   0.0883883  -0.0883883), wk =   0.0468750
        k(    8) = (   0.3535534   0.1767767  -0.1767767), wk =   0.0468750
        k(    9) = (  -0.2651650  -0.4419417   0.4419417), wk =   0.0468750
        k(   10) = (  -0.1767767  -0.3535534   0.3535534), wk =   0.0468750
        k(   11) = (  -0.0883883  -0.2651650   0.2651650), wk =   0.0468750
        k(   12) = (   0.0000000  -0.1767767   0.1767767), wk =   0.0234375
        k(   13) = (   0.3535534   0.0000000   0.0000000), wk =   0.0117188
        k(   14) = (   0.4419417   0.0883883  -0.0883883), wk =   0.0468750
        k(   15) = (  -0.1767767  -0.5303301   0.5303301), wk =   0.0468750
        k(   16) = (  -0.0883883  -0.4419417   0.4419417), wk =   0.0468750
        k(   17) = (   0.0000000  -0.3535534   0.3535534), wk =   0.0234375
        k(   18) = (   0.5303301   0.0000000   0.0000000), wk =   0.0117188
        k(   19) = (  -0.0883883  -0.6187184   0.6187184), wk =   0.0468750
        k(   20) = (   0.0000000  -0.5303301   0.5303301), wk =   0.0234375
        k(   21) = (  -0.7071068   0.0000000   0.0000000), wk =   0.0058594
        k(   22) = (   0.3535534   0.1767767   0.0000000), wk =   0.0468750
        k(   23) = (  -0.2651650  -0.4419417   0.6187184), wk =   0.0937500
        k(   24) = (  -0.1767767  -0.3535534   0.5303301), wk =   0.0468750
        k(   25) = (  -0.1767767  -0.5303301   0.7071068), wk =   0.0468750
        k(   26) = (  -0.0883883  -0.4419417   0.6187184), wk =   0.0937500
        k(   27) = (   0.0000000  -0.3535534   0.5303301), wk =   0.0468750
        k(   28) = (  -0.7071068   0.1767767   0.0000000), wk =   0.0234375
        k(   29) = (  -0.7071068   0.3535534   0.0000000), wk =   0.0117188

     Dense  grid:    37309 G-vectors     FFT dimensions: (  48,  48,  48)

     Estimated max dynamical RAM per process >      10.62 MB

     Estimated total dynamical RAM >     254.93 MB

     Initial potential from superposition of free atoms

     starting charge    7.99877, renormalised to    8.00000
     Starting wfcs are   16 randomized atomic wfcs

     total cpu time spent up to now is        0.8 secs

     Self-consistent Calculation

     iteration #  1     ecut=   100.00 Ry     beta= 0.30
     Davidson diagonalization with overlap
     ethr =  1.00E-02,  avg # of iterations =  4.5

     Threshold (ethr) on eigenvalues was too large:
     Diagonalizing with lowered threshold

     Davidson diagonalization with overlap
     ethr =  6.33E-04,  avg # of iterations =  1.9

     total cpu time spent up to now is        2.5 secs

     total energy              =     -16.92819969 Ry
     estimated scf accuracy    <       0.05413052 Ry

     iteration #  2     ecut=   100.00 Ry     beta= 0.30
     Davidson diagonalization with overlap
     ethr =  6.77E-04,  avg # of iterations =  1.0

     total cpu time spent up to now is        3.1 secs

     total energy              =     -16.92319974 Ry
     estimated scf accuracy    <       0.02304503 Ry

     iteration #  3     ecut=   100.00 Ry     beta= 0.30
     Davidson diagonalization with overlap
     ethr =  2.88E-04,  avg # of iterations =  1.4

     total cpu time spent up to now is        3.8 secs

     total energy              =     -16.92435858 Ry
     estimated scf accuracy    <       0.00029151 Ry

     iteration #  4     ecut=   100.00 Ry     beta= 0.30
     Davidson diagonalization with overlap
     ethr =  3.64E-06,  avg # of iterations =  5.7

     total cpu time spent up to now is        4.7 secs

     total energy              =     -16.92439675 Ry
     estimated scf accuracy    <       0.00001445 Ry

     iteration #  5     ecut=   100.00 Ry     beta= 0.30
     Davidson diagonalization with overlap
     ethr =  1.81E-07,  avg # of iterations =  1.5

     total cpu time spent up to now is        5.4 secs

     total energy              =     -16.92439785 Ry
     estimated scf accuracy    <       0.00000021 Ry

     iteration #  6     ecut=   100.00 Ry     beta= 0.30
     Davidson diagonalization with overlap
     ethr =  2.66E-09,  avg # of iterations =  3.2

     total cpu time spent up to now is        6.2 secs

     total energy              =     -16.92439804 Ry
     estimated scf accuracy    <       0.00000013 Ry

     iteration #  7     ecut=   100.00 Ry     beta= 0.30
     Davidson diagonalization with overlap
     ethr =  1.68E-09,  avg # of iterations =  1.9

     total cpu time spent up to now is        6.8 secs

     End of self-consistent calculation

          k = 0.0000 0.0000 0.0000 (  4645 PWs)   bands (ev):

    -5.8081  -5.8081   5.9786   5.9786   6.0259   6.0259   6.0259   6.0259
     8.5335   8.5335   8.5682   8.5682   8.5682   8.5682   9.1080   9.1080

          k = 0.0884 0.0884-0.0884 (  4678 PWs)   bands (ev):

    -5.6078  -5.6078   4.4140   4.4140   5.7111   5.7111   5.7420   5.7420
     8.4381   8.4381   8.9612   8.9612   8.9848   8.9848  10.5181  10.5181

          k = 0.1768 0.1768-0.1768 (  4669 PWs)   bands (ev):

    -5.0240  -5.0240   2.1174   2.1174   5.2471   5.2471   5.2779   5.2779
     7.9546   7.9546   9.4816   9.4816   9.5030   9.5030  12.7403  12.7403

          k = 0.2652 0.2652-0.2652 (  4678 PWs)   bands (ev):

    -4.1502  -4.1502   0.1335   0.1335   4.9235   4.9235   4.9546   4.9546
     7.5904   7.5904   9.4497   9.4497   9.4661   9.4661  13.8438  13.8438

          k =-0.3536-0.3536 0.3536 (  4626 PWs)   bands (ev):

    -3.5316  -3.5316  -0.8640  -0.8640   4.8125   4.8125   4.8438   4.8438
     7.4624   7.4624   9.3479   9.3479   9.3625   9.3625  13.7115  13.7115

          k = 0.1768 0.0000 0.0000 (  4673 PWs)   bands (ev):

    -5.5403  -5.5403   4.6512   4.6512   5.2129   5.2129   5.2299   5.2299
     8.0174   8.0174   9.6695   9.6695   9.6777   9.6777  10.2031  10.2031

          k = 0.2652 0.0884-0.0884 (  4672 PWs)   bands (ev):

    -5.0806  -5.0806   2.7974   2.7974   4.7162   4.7162   4.7828   4.7828
     8.1486   8.1486   9.6187   9.6187  10.4300  10.4300  10.7477  10.7477

          k = 0.3536 0.1768-0.1768 (  4677 PWs)   bands (ev):

    -4.2828  -4.2828   0.7759   0.7759   4.1963   4.1963   4.4531   4.4531
     8.2308   8.2308   9.5922   9.5922  10.4463  10.4463  11.4479  11.4479

          k =-0.2652-0.4419 0.4419 (  4650 PWs)   bands (ev):

    -3.4447  -3.4447  -0.6538  -0.6538   3.7594   3.7594   4.4747   4.4747
     8.1641   8.1641   9.4929   9.4929  10.0992  10.0992  13.3084  13.3084

          k =-0.1768-0.3536 0.3536 (  4662 PWs)   bands (ev):

    -3.6817  -3.6817  -0.2928  -0.2928   3.5844   3.5844   4.7641   4.7641
     8.3114   8.3114   9.6142   9.6142   9.8687   9.8687  13.8272  13.8272

          k =-0.0884-0.2652 0.2652 (  4669 PWs)   bands (ev):

    -4.5825  -4.5825   1.4220   1.4220   3.7392   3.7392   5.2461   5.2461
     8.6523   8.6523   9.6625   9.6625   9.8428   9.8428  12.2106  12.2106

          k = 0.0000-0.1768 0.1768 (  4683 PWs)   bands (ev):

    -5.2781  -5.2781   3.3288   3.3288   4.4175   4.4175   5.7190   5.7190
     8.9609   8.9609   9.1094   9.1094   9.3374   9.3374  11.4236  11.4236

          k = 0.3536 0.0000 0.0000 (  4664 PWs)   bands (ev):

    -4.7465  -4.7465   2.4834   2.4834   4.1534   4.1534   4.1619   4.1619
     7.1561   7.1561   9.1418   9.1418  11.6905  11.6905  11.6927  11.6927

          k = 0.4419 0.0884-0.0884 (  4666 PWs)   bands (ev):

    -4.0506  -4.0506   1.0870   1.0870   3.3912   3.3912   3.8443   3.8443
     7.3767   7.3767   8.9103   8.9103  11.9086  11.9086  12.2103  12.2103

          k =-0.1768-0.5303 0.5303 (  4645 PWs)   bands (ev):

    -3.1465  -3.1465  -0.3204  -0.3204   2.5432   2.5432   3.8462   3.8462
     7.5480   7.5480  10.4405  10.4405  11.6440  11.6440  11.8818  11.8818

          k =-0.0884-0.4419 0.4419 (  4653 PWs)   bands (ev):

    -2.9496  -2.9496  -0.5701  -0.5701   2.0959   2.0959   4.1576   4.1576
     7.8612   7.8612  11.4076  11.4076  11.4458  11.4458  12.8856  12.8857

          k = 0.0000-0.3536 0.3536 (  4672 PWs)   bands (ev):

    -3.8058  -3.8058   0.5633   0.5633   2.3369   2.3369   4.7043   4.7043
     8.4402   8.4402  10.7477  10.7477  11.0939  11.0939  12.0350  12.0350

          k = 0.5303 0.0000 0.0000 (  4672 PWs)   bands (ev):

    -3.4591  -3.4591   0.2901   0.2901   3.4511   3.4511   3.4547   3.4547
     6.6569   6.6569   7.5842   7.5842  13.9325  13.9325  13.9401  13.9402

          k =-0.0884-0.6187 0.6187 (  4669 PWs)   bands (ev):

    -2.5805  -2.5805  -0.7760  -0.7760   2.6477   2.6477   3.3777   3.3777
     6.9383   6.9383   7.9927   7.9927  14.1736  14.1736  14.2269  14.2269

          k = 0.0000-0.5303 0.5303 (  4660 PWs)   bands (ev):

    -2.1577  -2.1577  -1.1608  -1.1608   1.8060   1.8060   3.6300   3.6300
     7.2411   7.2411  10.1202  10.1202  13.3762  13.3763  14.0658  14.0689

          k =-0.7071 0.0000 0.0000 (  4720 PWs)   bands (ev):

    -1.7429  -1.7429  -1.7429  -1.7429   3.2112   3.2112   3.2112   3.2112
     6.7594   6.7594   6.7594   6.7594  15.9162  15.9162  15.9162  15.9162

          k = 0.3536 0.1768 0.0000 (  4681 PWs)   bands (ev):

    -4.5044  -4.5044   1.7342   1.7342   3.3539   3.3539   4.6063   4.6063
     8.4478   8.4478   9.8219   9.8219  10.2154  10.2154  11.4443  11.4443

          k =-0.2652-0.4419 0.6187 (  4660 PWs)   bands (ev):

    -3.6357  -3.6357   0.2153   0.2153   2.7494   2.7494   4.1187   4.1187
     8.8689   8.8689   9.5344   9.5344  10.9818  10.9818  11.8839  11.8839

          k =-0.1768-0.3536 0.5303 (  4638 PWs)   bands (ev):

    -3.0022  -3.0022  -0.7035  -0.7035   2.6178   2.6178   3.8957   3.8957
     9.0241   9.0241   9.1562   9.1562  11.8493  11.8493  13.0771  13.0788

          k =-0.1768-0.5303 0.7071 (  4641 PWs)   bands (ev):

    -3.2659  -3.2659   0.0749   0.0749   2.7180   2.7180   3.3102   3.3102
     7.9621   7.9621   8.6669   8.6669  11.6871  11.6871  13.8883  13.8883

          k =-0.0884-0.4419 0.6187 (  4656 PWs)   bands (ev):

    -2.4132  -2.4132  -0.8730  -0.8730   2.0382   2.0382   3.1142   3.1142
     8.4021   8.4021  10.2788  10.2788  11.2132  11.2132  13.3518  13.3519

          k = 0.0000-0.3536 0.5303 (  4659 PWs)   bands (ev):

    -2.7565  -2.7565  -0.5154  -0.5154   1.8759   1.8759   3.4809   3.4809
     8.8709   8.8709  10.5211  10.5211  11.1699  11.1699  12.9677  12.9677

          k =-0.7071 0.1768 0.0000 (  4668 PWs)   bands (ev):

    -1.6711  -1.6711  -1.6675  -1.6675   2.6618   2.6618   2.6718   2.6718
     7.9904   7.9904   7.9965   7.9965  13.7464  13.7464  13.7572  13.7572

          k =-0.7071 0.3536 0.0000 (  4648 PWs)   bands (ev):

    -1.5914  -1.5914  -1.5859  -1.5859   2.2390   2.2390   2.2517   2.2517
    10.2834  10.2834  10.2836  10.2836  10.9202  10.9202  10.9369  10.9369

     the Fermi energy is     6.5573 ev

!    total energy              =     -16.92439805 Ry
     estimated scf accuracy    <          2.1E-09 Ry
     smearing contrib. (-TS)   =       0.00001458 Ry
     internal energy E=F+TS    =     -16.92441263 Ry

     The total energy is F=E-TS. E is the sum of the following terms:
     one-electron contribution =       4.79889584 Ry
     hartree contribution      =       1.11477478 Ry
     xc contribution           =      -6.16059604 Ry
     ewald contribution        =     -16.67748721 Ry

     convergence has been achieved in   7 iterations

     Forces acting on atoms (cartesian axes, Ry/au):

     atom    1 type  1   force =     0.00000000   -0.00000000   -0.00000000
     atom    2 type  1   force =    -0.00000000    0.00000000    0.00000000

     Total force =     0.000000     Total SCF correction =     0.000000


     Computing stress (Cartesian axis) and pressure

          total   stress  (Ry/bohr**3)                   (kbar)     P=       -0.04
  -0.00000027  -0.00000000  -0.00000000           -0.04       -0.00       -0.00
  -0.00000000  -0.00000027  -0.00000000           -0.00       -0.04       -0.00
  -0.00000000  -0.00000000  -0.00000027           -0.00       -0.00       -0.04


     Writing output data file /work/k0508/k050801/Si/scf/Si.save/
 
     init_run     :      0.28s CPU      0.43s WALL (       1 calls)
     electrons    :      5.71s CPU      6.04s WALL (       1 calls)
     forces       :      0.12s CPU      0.12s WALL (       1 calls)
     stress       :      0.21s CPU      0.21s WALL (       1 calls)

     Called by init_run:
     wfcinit      :      0.25s CPU      0.38s WALL (       1 calls)
     potinit      :      0.01s CPU      0.01s WALL (       1 calls)
     hinit0       :      0.01s CPU      0.03s WALL (       1 calls)

     Called by electrons:
     c_bands      :      4.88s CPU      5.11s WALL (       8 calls)
     sum_band     :      0.76s CPU      0.81s WALL (       8 calls)
     v_of_rho     :      0.02s CPU      0.02s WALL (       8 calls)
     mix_rho      :      0.01s CPU      0.02s WALL (       8 calls)

     Called by c_bands:
     init_us_2    :      0.04s CPU      0.05s WALL (     551 calls)
     cegterg      :      4.23s CPU      4.42s WALL (     232 calls)

     Called by *egterg:
     cdiaghg      :      0.24s CPU      0.35s WALL (     815 calls)
     h_psi        :      4.02s CPU      4.21s WALL (     873 calls)
     g_psi        :      0.01s CPU      0.01s WALL (     612 calls)

     Called by h_psi:
     h_psi:calbec :      0.13s CPU      0.14s WALL (     873 calls)
     vloc_psi     :      3.72s CPU      3.88s WALL (     873 calls)
     add_vuspsi   :      0.16s CPU      0.17s WALL (     873 calls)

     General routines
     calbec       :      0.16s CPU      0.17s WALL (    1018 calls)
     fft          :      0.02s CPU      0.04s WALL (     129 calls)
     ffts         :      0.00s CPU      0.00s WALL (      32 calls)
     fftw         :      4.10s CPU      4.29s WALL (   47112 calls)
 
     Parallel routines
     fft_scatt_xy :      0.29s CPU      0.30s WALL (   47273 calls)
     fft_scatt_yz :      2.40s CPU      2.51s WALL (   47273 calls)
 
     PWSCF        :      6.55s CPU      7.50s WALL

 
   This run was terminated on:  21:21:14  29Nov2020            

=------------------------------------------------------------------------------=
   JOB DONE.
=------------------------------------------------------------------------------=
