mpijob CMD    : mpirun -f /tmp/mpiexec.params.k050801.12487
mpijob PARAMS : -d
        /home/k0508/k050801/research/dft/qeirreps/v1/qeirreps/reference/Bi_nonsoc
        r1i0n1 24 omplace -nt 1
        "/home/k0508/k050801/research/dft/qe-6.2/bin/bands.x"

SGI MPT Placement option
--------------------------
omplace -nt 1

Node   MPI
------------
r1i0n1 24


     Program BANDS v.6.2 (svn rev. 13949:13950) starts on  8Apr2020 at 15: 2:43 

     This program is part of the open-source Quantum ESPRESSO suite
     for quantum simulation of materials; please cite
         "P. Giannozzi et al., J. Phys.:Condens. Matter 21 395502 (2009);
         "P. Giannozzi et al., J. Phys.:Condens. Matter 29 465901 (2017);
          URL http://www.quantum-espresso.org", 
     in publications or presentations arising from this work. More details at
     http://www.quantum-espresso.org/quote

     Parallel version (MPI), running on    24 processors

     MPI processes distributed on     1 nodes
     R & G space division:  proc/nbgrp/npool/nimage =      24

     Reading data from directory:
     ./work/band/Bi.save

     IMPORTANT: XC functional enforced from input :
     Exchange-correlation      = PBE ( 1  4  3  4 0 0)
     Any further DFT definition will be discarded
     Please, verify this is what you really want

 
     Parallelization info
     --------------------
     sticks:   dense  smooth     PW     G-vecs:    dense   smooth      PW
     Min          91      91     25                 2787     2787     410
     Max          92      92     26                 2793     2793     413
     Sum        2197    2197    617                66925    66925    9883
 
     high-symmetry point:  0.0000 0.0000 0.0000   x coordinate   0.0000
     high-symmetry point:  0.0000 0.0000 0.6009   x coordinate   0.6009
     high-symmetry point:  0.5397 0.0000 0.6009   x coordinate   1.1406
     high-symmetry point:  0.7710-0.1335 0.2003   x coordinate   1.1406
     high-symmetry point:  0.5204 0.3005 0.2003   x coordinate   1.6417
     high-symmetry point:  0.0000 0.0000 0.0000   x coordinate   2.2751
     high-symmetry point:  0.7710 0.0000 0.0000   x coordinate   3.0461
     high-symmetry point:  0.6553-0.0668 0.4006   x coordinate   3.0461
     high-symmetry point:  0.5204-0.3005 0.4006   x coordinate   3.3159
     high-symmetry point:  0.0000 0.0000 0.0000   x coordinate   4.0382

     Plottable bands (eV) written to file Bi.band.gnu
     Bands written to file Bi.band

 **************************************************************************

                    xk=(   0.00000,   0.00000,   0.00000  )

     point group D_3d (-3m) 
     there are  6 classes
     the character table:

       E     2C3   3C2'  i     2S6   3s_d 
A_1g   1.00  1.00  1.00  1.00  1.00  1.00
A_2g   1.00  1.00 -1.00  1.00  1.00 -1.00
E_g    2.00 -1.00  0.00  2.00 -1.00  0.00
A_1u   1.00  1.00  1.00 -1.00 -1.00 -1.00
A_2u   1.00  1.00 -1.00 -1.00 -1.00  1.00
E_u    2.00 -1.00  0.00 -2.00  1.00  0.00

     the symmetry operations in each class and the name of the first element:

     E        1
                                                                 
     2C3      3    4
                                                                 
     3C2'     2    5    6
                                                                 
     i        7
                                                                 
     2S6      9   10
                                                                 
     3s_d     8   11   12
                                                                 

     Band symmetry, D_3d (-3m)  point group:

     e(  1 -  2) =    -13.64387  eV     2   --> E_g  L_3       
     e(  3 -  4) =    -13.51016  eV     2   --> E_u  L_3'      
     e(  5 -  5) =    -13.49078  eV     1   --> A_2u L_2'      
     e(  6 -  6) =    -13.34666  eV     1   --> A_1g L_1       
     e(  7 -  8) =    -13.33470  eV     2   --> E_g  L_3       
     e(  9 - 10) =    -13.22284  eV     2   --> E_u  L_3'      
     e( 11 - 11) =     -3.60645  eV     1   --> A_1g L_1       
     e( 12 - 12) =      1.62848  eV     1   --> A_2u L_2'      
     e( 13 - 13) =      7.91810  eV     1   --> A_1g L_1       
     e( 14 - 15) =      8.06337  eV     2   --> E_g  L_3       
     e( 16 - 16) =     11.60539  eV     1   --> A_2u L_2'      
     e( 17 - 18) =     12.12928  eV     2   --> E_u  L_3'      
     e( 19 - 19) =     14.98681  eV     1   --> A_2u L_2'      

 **************************************************************************

 **************************************************************************

                    xk=(   0.00000,   0.00000,   0.01002  )

     point group C_3v (3m)  
     there are  3 classes
     the character table:

       E     2C3   3s_v 
A_1    1.00  1.00  1.00
A_2    1.00  1.00 -1.00
E      2.00 -1.00  0.00

     the symmetry operations in each class and the name of the first element:

     E        1
                                                                 
     2C3      2    3
                                                                 
     3s_v     4    5    6
                                                                 

     Band symmetry, C_3v (3m)   point group:

     e(  1 -  2) =    -13.64383  eV     2   --> E    L_3       
     e(  3 -  4) =    -13.51015  eV     2   --> E    L_3       
     e(  5 -  5) =    -13.49076  eV     1   --> A_1  L_1       
     e(  6 -  6) =    -13.34667  eV     1   --> A_1  L_1       
     e(  7 -  8) =    -13.33472  eV     2   --> E    L_3       
     e(  9 - 10) =    -13.22288  eV     2   --> E    L_3       
     e( 11 - 11) =     -3.60596  eV     1   --> A_1  L_1       
     e( 12 - 12) =      1.62715  eV     1   --> A_1  L_1       
     e( 13 - 13) =      7.91848  eV     1   --> A_1  L_1       
     e( 14 - 15) =      8.06356  eV     2   --> E    L_3       
     e( 16 - 16) =     11.60374  eV     1   --> A_1  L_1       
     e( 17 - 18) =     12.12742  eV     2   --> E    L_3       
     e( 19 - 19) =     14.96180  eV     1   --> A_1  L_1       

 **************************************************************************

 **************************************************************************

                    xk=(   0.00000,   0.00000,   0.02003  )

     Band symmetry, C_3v (3m)   point group:

     e(  1 -  2) =    -13.64371  eV     2   --> E    L_3       
     e(  3 -  4) =    -13.51009  eV     2   --> E    L_3       
     e(  5 -  5) =    -13.49071  eV     1   --> A_1  L_1       
     e(  6 -  6) =    -13.34672  eV     1   --> A_1  L_1       
     e(  7 -  8) =    -13.33476  eV     2   --> E    L_3       
     e(  9 - 10) =    -13.22302  eV     2   --> E    L_3       
     e( 11 - 11) =     -3.60449  eV     1   --> A_1  L_1       
     e( 12 - 12) =      1.62315  eV     1   --> A_1  L_1       
     e( 13 - 13) =      7.91960  eV     1   --> A_1  L_1       
     e( 14 - 15) =      8.06414  eV     2   --> E    L_3       
     e( 16 - 16) =     11.59882  eV     1   --> A_1  L_1       
     e( 17 - 18) =     12.12185  eV     2   --> E    L_3       
     e( 19 - 19) =     14.91198  eV     1   --> A_1  L_1       

 **************************************************************************

 **************************************************************************

                    xk=(   0.00000,   0.00000,   0.03005  )

     Band symmetry, C_3v (3m)   point group:

     e(  1 -  2) =    -13.64351  eV     2   --> E    L_3       
     e(  3 -  4) =    -13.51001  eV     2   --> E    L_3       
     e(  5 -  5) =    -13.49062  eV     1   --> A_1  L_1       
     e(  6 -  6) =    -13.34680  eV     1   --> A_1  L_1       
     e(  7 -  8) =    -13.33483  eV     2   --> E    L_3       
     e(  9 - 10) =    -13.22324  eV     2   --> E    L_3       
     e( 11 - 11) =     -3.60203  eV     1   --> A_1  L_1       
     e( 12 - 12) =      1.61650  eV     1   --> A_1  L_1       
     e( 13 - 13) =      7.92145  eV     1   --> A_1  L_1       
     e( 14 - 15) =      8.06512  eV     2   --> E    L_3       
     e( 16 - 16) =     11.59066  eV     1   --> A_1  L_1       
     e( 17 - 18) =     12.11260  eV     2   --> E    L_3       
     e( 19 - 19) =     14.85684  eV     1   --> A_1  L_1       

 **************************************************************************

 **************************************************************************

                    xk=(   0.00000,   0.00000,   0.04006  )

     Band symmetry, C_3v (3m)   point group:

     e(  1 -  2) =    -13.64322  eV     2   --> E    L_3       
     e(  3 -  4) =    -13.50989  eV     2   --> E    L_3       
     e(  5 -  5) =    -13.49051  eV     1   --> A_1  L_1       
     e(  6 -  6) =    -13.34690  eV     1   --> A_1  L_1       
     e(  7 -  8) =    -13.33492  eV     2   --> E    L_3       
     e(  9 - 10) =    -13.22356  eV     2   --> E    L_3       
     e( 11 - 11) =     -3.59859  eV     1   --> A_1  L_1       
     e( 12 - 12) =      1.60723  eV     1   --> A_1  L_1       
     e( 13 - 13) =      7.92403  eV     1   --> A_1  L_1       
     e( 14 - 15) =      8.06648  eV     2   --> E    L_3       
     e( 16 - 16) =     11.57934  eV     1   --> A_1  L_1       
     e( 17 - 18) =     12.09975  eV     2   --> E    L_3       
     e( 19 - 19) =     14.80141  eV     1   --> A_1  L_1       

 **************************************************************************

 **************************************************************************

                    xk=(   0.00000,   0.00000,   0.05008  )

     Band symmetry, C_3v (3m)   point group:

     e(  1 -  2) =    -13.64286  eV     2   --> E    L_3       
     e(  3 -  4) =    -13.50973  eV     2   --> E    L_3       
     e(  5 -  5) =    -13.49035  eV     1   --> A_1  L_1       
     e(  6 -  6) =    -13.34704  eV     1   --> A_1  L_1       
     e(  7 -  8) =    -13.33505  eV     2   --> E    L_3       
     e(  9 - 10) =    -13.22396  eV     2   --> E    L_3       
     e( 11 - 11) =     -3.59418  eV     1   --> A_1  L_1       
     e( 12 - 12) =      1.59536  eV     1   --> A_1  L_1       
     e( 13 - 13) =      7.92730  eV     1   --> A_1  L_1       
     e( 14 - 15) =      8.06824  eV     2   --> E    L_3       
     e( 16 - 16) =     11.56495  eV     1   --> A_1  L_1       
     e( 17 - 18) =     12.08339  eV     2   --> E    L_3       
     e( 19 - 19) =     14.74731  eV     1   --> A_1  L_1       

 **************************************************************************

 **************************************************************************

                    xk=(   0.00000,   0.00000,   0.06009  )

     Band symmetry, C_3v (3m)   point group:

     e(  1 -  2) =    -13.64242  eV     2   --> E    L_3       
     e(  3 -  4) =    -13.50954  eV     2   --> E    L_3       
     e(  5 -  5) =    -13.49017  eV     1   --> A_1  L_1       
     e(  6 -  6) =    -13.34720  eV     1   --> A_1  L_1       
     e(  7 -  8) =    -13.33520  eV     2   --> E    L_3       
     e(  9 - 10) =    -13.22445  eV     2   --> E    L_3       
     e( 11 - 11) =     -3.58879  eV     1   --> A_1  L_1       
     e( 12 - 12) =      1.58092  eV     1   --> A_1  L_1       
     e( 13 - 13) =      7.93125  eV     1   --> A_1  L_1       
     e( 14 - 15) =      8.07039  eV     2   --> E    L_3       
     e( 16 - 16) =     11.54764  eV     1   --> A_1  L_1       
     e( 17 - 18) =     12.06362  eV     2   --> E    L_3       
     e( 19 - 19) =     14.69530  eV     1   --> A_1  L_1       

 **************************************************************************

 **************************************************************************

                    xk=(   0.00000,   0.00000,   0.07011  )

     Band symmetry, C_3v (3m)   point group:

     e(  1 -  2) =    -13.64189  eV     2   --> E    L_3       
     e(  3 -  4) =    -13.50932  eV     2   --> E    L_3       
     e(  5 -  5) =    -13.48995  eV     1   --> A_1  L_1       
     e(  6 -  6) =    -13.34740  eV     1   --> A_1  L_1       
     e(  7 -  8) =    -13.33538  eV     2   --> E    L_3       
     e(  9 - 10) =    -13.22503  eV     2   --> E    L_3       
     e( 11 - 11) =     -3.58242  eV     1   --> A_1  L_1       
     e( 12 - 12) =      1.56396  eV     1   --> A_1  L_1       
     e( 13 - 13) =      7.93583  eV     1   --> A_1  L_1       
     e( 14 - 15) =      8.07293  eV     2   --> E    L_3       
     e( 16 - 16) =     11.52753  eV     1   --> A_1  L_1       
     e( 17 - 18) =     12.04057  eV     2   --> E    L_3       
     e( 19 - 19) =     14.64582  eV     1   --> A_1  L_1       

 **************************************************************************

 **************************************************************************

                    xk=(   0.00000,   0.00000,   0.08012  )

     Band symmetry, C_3v (3m)   point group:

     e(  1 -  2) =    -13.64129  eV     2   --> E    L_3       
     e(  3 -  4) =    -13.50906  eV     2   --> E    L_3       
     e(  5 -  5) =    -13.48970  eV     1   --> A_1  L_1       
     e(  6 -  6) =    -13.34762  eV     1   --> A_1  L_1       
     e(  7 -  8) =    -13.33559  eV     2   --> E    L_3       
     e(  9 - 10) =    -13.22570  eV     2   --> E    L_3       
     e( 11 - 11) =     -3.57509  eV     1   --> A_1  L_1       
     e( 12 - 12) =      1.54453  eV     1   --> A_1  L_1       
     e( 13 - 13) =      7.94101  eV     1   --> A_1  L_1       
     e( 14 - 15) =      8.07587  eV     2   --> E    L_3       
     e( 16 - 16) =     11.50478  eV     1   --> A_1  L_1       
     e( 17 - 18) =     12.01440  eV     2   --> E    L_3       
     e( 19 - 19) =     14.59917  eV     1   --> A_1  L_1       

 **************************************************************************

 **************************************************************************

                    xk=(   0.00000,   0.00000,   0.09014  )

     Band symmetry, C_3v (3m)   point group:

     e(  1 -  2) =    -13.64062  eV     2   --> E    L_3       
     e(  3 -  4) =    -13.50877  eV     2   --> E    L_3       
     e(  5 -  5) =    -13.48941  eV     1   --> A_1  L_1       
     e(  6 -  6) =    -13.34787  eV     1   --> A_1  L_1       
     e(  7 -  8) =    -13.33582  eV     2   --> E    L_3       
     e(  9 - 10) =    -13.22645  eV     2   --> E    L_3       
     e( 11 - 11) =     -3.56679  eV     1   --> A_1  L_1       
     e( 12 - 12) =      1.52269  eV     1   --> A_1  L_1       
     e( 13 - 13) =      7.94675  eV     1   --> A_1  L_1       
     e( 14 - 15) =      8.07921  eV     2   --> E    L_3       
     e( 16 - 16) =     11.47956  eV     1   --> A_1  L_1       
     e( 17 - 18) =     11.98527  eV     2   --> E    L_3       
     e( 19 - 19) =     14.55560  eV     1   --> A_1  L_1       

 **************************************************************************

 **************************************************************************

                    xk=(   0.00000,   0.00000,   0.10016  )

     Band symmetry, C_3v (3m)   point group:

     e(  1 -  2) =    -13.63986  eV     2   --> E    L_3       
     e(  3 -  4) =    -13.50845  eV     2   --> E    L_3       
     e(  5 -  5) =    -13.48910  eV     1   --> A_1  L_1       
     e(  6 -  6) =    -13.34816  eV     1   --> A_1  L_1       
     e(  7 -  8) =    -13.33607  eV     2   --> E    L_3       
     e(  9 - 10) =    -13.22728  eV     2   --> E    L_3       
     e( 11 - 11) =     -3.55753  eV     1   --> A_1  L_1       
     e( 12 - 12) =      1.49851  eV     1   --> A_1  L_1       
     e( 13 - 13) =      7.95300  eV     1   --> A_1  L_1       
     e( 14 - 15) =      8.08296  eV     2   --> E    L_3       
     e( 16 - 16) =     11.45206  eV     1   --> A_1  L_1       
     e( 17 - 18) =     11.95334  eV     2   --> E    L_3       
     e( 19 - 19) =     14.51528  eV     1   --> A_1  L_1       

 **************************************************************************

 **************************************************************************

                    xk=(   0.00000,   0.00000,   0.11017  )

     Band symmetry, C_3v (3m)   point group:

     e(  1 -  2) =    -13.63903  eV     2   --> E    L_3       
     e(  3 -  4) =    -13.50810  eV     2   --> E    L_3       
     e(  5 -  5) =    -13.48875  eV     1   --> A_1  L_1       
     e(  6 -  6) =    -13.34847  eV     1   --> A_1  L_1       
     e(  7 -  8) =    -13.33636  eV     2   --> E    L_3       
     e(  9 - 10) =    -13.22820  eV     2   --> E    L_3       
     e( 11 - 11) =     -3.54732  eV     1   --> A_1  L_1       
     e( 12 - 12) =      1.47205  eV     1   --> A_1  L_1       
     e( 13 - 13) =      7.95972  eV     1   --> A_1  L_1       
     e( 14 - 15) =      8.08711  eV     2   --> E    L_3       
     e( 16 - 16) =     11.42244  eV     1   --> A_1  L_1       
     e( 17 - 18) =     11.91880  eV     2   --> E    L_3       
     e( 19 - 19) =     14.47838  eV     1   --> A_1  L_1       

 **************************************************************************

 **************************************************************************

                    xk=(   0.00000,   0.00000,   0.12019  )

     Band symmetry, C_3v (3m)   point group:

     e(  1 -  2) =    -13.63813  eV     2   --> E    L_3       
     e(  3 -  4) =    -13.50771  eV     2   --> E    L_3       
     e(  5 -  5) =    -13.48837  eV     1   --> A_1  L_1       
     e(  6 -  6) =    -13.34880  eV     1   --> A_1  L_1       
     e(  7 -  8) =    -13.33666  eV     2   --> E    L_3       
     e(  9 - 10) =    -13.22920  eV     2   --> E    L_3       
     e( 11 - 11) =     -3.53617  eV     1   --> A_1  L_1       
     e( 12 - 12) =      1.44338  eV     1   --> A_1  L_1       
     e( 13 - 13) =      7.96685  eV     1   --> A_1  L_1       
     e( 14 - 15) =      8.09166  eV     2   --> E    L_3       
     e( 16 - 16) =     11.39089  eV     1   --> A_1  L_1       
     e( 17 - 18) =     11.88183  eV     2   --> E    L_3       
     e( 19 - 19) =     14.44501  eV     1   --> A_1  L_1       

 **************************************************************************

 **************************************************************************

                    xk=(   0.00000,   0.00000,   0.13020  )

     Band symmetry, C_3v (3m)   point group:

     e(  1 -  2) =    -13.63715  eV     2   --> E    L_3       
     e(  3 -  4) =    -13.50730  eV     2   --> E    L_3       
     e(  5 -  5) =    -13.48796  eV     1   --> A_1  L_1       
     e(  6 -  6) =    -13.34917  eV     1   --> A_1  L_1       
     e(  7 -  8) =    -13.33700  eV     2   --> E    L_3       
     e(  9 - 10) =    -13.23028  eV     2   --> E    L_3       
     e( 11 - 11) =     -3.52407  eV     1   --> A_1  L_1       
     e( 12 - 12) =      1.41259  eV     1   --> A_1  L_1       
     e( 13 - 13) =      7.97434  eV     1   --> A_1  L_1       
     e( 14 - 15) =      8.09663  eV     2   --> E    L_3       
     e( 16 - 16) =     11.35759  eV     1   --> A_1  L_1       
     e( 17 - 18) =     11.84262  eV     2   --> E    L_3       
     e( 19 - 19) =     14.41529  eV     1   --> A_1  L_1       

 **************************************************************************

 **************************************************************************

                    xk=(   0.00000,   0.00000,   0.14022  )

     Band symmetry, C_3v (3m)   point group:

     e(  1 -  2) =    -13.63611  eV     2   --> E    L_3       
     e(  3 -  4) =    -13.50685  eV     2   --> E    L_3       
     e(  5 -  5) =    -13.48752  eV     1   --> A_1  L_1       
     e(  6 -  6) =    -13.34956  eV     1   --> A_1  L_1       
     e(  7 -  8) =    -13.33735  eV     2   --> E    L_3       
     e(  9 - 10) =    -13.23144  eV     2   --> E    L_3       
     e( 11 - 11) =     -3.51104  eV     1   --> A_1  L_1       
     e( 12 - 12) =      1.37976  eV     1   --> A_1  L_1       
     e( 13 - 13) =      7.98214  eV     1   --> A_1  L_1       
     e( 14 - 15) =      8.10201  eV     2   --> E    L_3       
     e( 16 - 16) =     11.32272  eV     1   --> A_1  L_1       
     e( 17 - 18) =     11.80135  eV     2   --> E    L_3       
     e( 19 - 19) =     14.38930  eV     1   --> A_1  L_1       

 **************************************************************************

 **************************************************************************

                    xk=(   0.00000,   0.00000,   0.15023  )

     Band symmetry, C_3v (3m)   point group:

     e(  1 -  2) =    -13.63499  eV     2   --> E    L_3       
     e(  3 -  4) =    -13.50638  eV     2   --> E    L_3       
     e(  5 -  5) =    -13.48705  eV     1   --> A_1  L_1       
     e(  6 -  6) =    -13.34998  eV     1   --> A_1  L_1       
     e(  7 -  8) =    -13.33773  eV     2   --> E    L_3       
     e(  9 - 10) =    -13.23267  eV     2   --> E    L_3       
     e( 11 - 11) =     -3.49709  eV     1   --> A_1  L_1       
     e( 12 - 12) =      1.34497  eV     1   --> A_1  L_1       
     e( 13 - 13) =      7.99020  eV     1   --> A_1  L_1       
     e( 14 - 15) =      8.10781  eV     2   --> E    L_3       
     e( 16 - 16) =     11.28645  eV     1   --> A_1  L_1       
     e( 17 - 18) =     11.75821  eV     2   --> E    L_3       
     e( 19 - 19) =     14.36711  eV     1   --> A_1  L_1       

 **************************************************************************

 **************************************************************************

                    xk=(   0.00000,   0.00000,   0.16025  )

     Band symmetry, C_3v (3m)   point group:

     e(  1 -  2) =    -13.63381  eV     2   --> E    L_3       
     e(  3 -  4) =    -13.50588  eV     2   --> E    L_3       
     e(  5 -  5) =    -13.48656  eV     1   --> A_1  L_1       
     e(  6 -  6) =    -13.35043  eV     1   --> A_1  L_1       
     e(  7 -  8) =    -13.33813  eV     2   --> E    L_3       
     e(  9 - 10) =    -13.23398  eV     2   --> E    L_3       
     e( 11 - 11) =     -3.48223  eV     1   --> A_1  L_1       
     e( 12 - 12) =      1.30832  eV     1   --> A_1  L_1       
     e( 13 - 13) =      7.99847  eV     1   --> A_1  L_1       
     e( 14 - 15) =      8.11402  eV     2   --> E    L_3       
     e( 16 - 16) =     11.24894  eV     1   --> A_1  L_1       
     e( 17 - 18) =     11.71338  eV     2   --> E    L_3       
     e( 19 - 19) =     14.34877  eV     1   --> A_1  L_1       

 **************************************************************************

 **************************************************************************

                    xk=(   0.00000,   0.00000,   0.17026  )

     Band symmetry, C_3v (3m)   point group:

     e(  1 -  2) =    -13.63256  eV     2   --> E    L_3       
     e(  3 -  4) =    -13.50536  eV     2   --> E    L_3       
     e(  5 -  5) =    -13.48603  eV     1   --> A_1  L_1       
     e(  6 -  6) =    -13.35090  eV     1   --> A_1  L_1       
     e(  7 -  8) =    -13.33855  eV     2   --> E    L_3       
     e(  9 - 10) =    -13.23536  eV     2   --> E    L_3       
     e( 11 - 11) =     -3.46647  eV     1   --> A_1  L_1       
     e( 12 - 12) =      1.26990  eV     1   --> A_1  L_1       
     e( 13 - 13) =      8.00689  eV     1   --> A_1  L_1       
     e( 14 - 15) =      8.12066  eV     2   --> E    L_3       
     e( 16 - 16) =     11.21037  eV     1   --> A_1  L_1       
     e( 17 - 18) =     11.66703  eV     2   --> E    L_3       
     e( 19 - 19) =     14.33434  eV     1   --> A_1  L_1       

 **************************************************************************

 **************************************************************************

                    xk=(   0.00000,   0.00000,   0.18028  )

     Band symmetry, C_3v (3m)   point group:

     e(  1 -  2) =    -13.63125  eV     2   --> E    L_3       
     e(  3 -  4) =    -13.50481  eV     2   --> E    L_3       
     e(  5 -  5) =    -13.48548  eV     1   --> A_1  L_1       
     e(  6 -  6) =    -13.35140  eV     1   --> A_1  L_1       
     e(  7 -  8) =    -13.33899  eV     2   --> E    L_3       
     e(  9 - 10) =    -13.23681  eV     2   --> E    L_3       
     e( 11 - 11) =     -3.44981  eV     1   --> A_1  L_1       
     e( 12 - 12) =      1.22980  eV     1   --> A_1  L_1       
     e( 13 - 13) =      8.01543  eV     1   --> A_1  L_1       
     e( 14 - 15) =      8.12773  eV     2   --> E    L_3       
     e( 16 - 16) =     11.17087  eV     1   --> A_1  L_1       
     e( 17 - 18) =     11.61935  eV     2   --> E    L_3       
     e( 19 - 19) =     14.32385  eV     1   --> A_1  L_1       

 **************************************************************************

 **************************************************************************

                    xk=(   0.00000,   0.00000,   0.19030  )

     Band symmetry, C_3v (3m)   point group:

     e(  1 -  2) =    -13.62987  eV     2   --> E    L_3       
     e(  3 -  4) =    -13.50423  eV     2   --> E    L_3       
     e(  5 -  5) =    -13.48490  eV     1   --> A_1  L_1       
     e(  6 -  6) =    -13.35192  eV     1   --> A_1  L_1       
     e(  7 -  8) =    -13.33945  eV     2   --> E    L_3       
     e(  9 - 10) =    -13.23832  eV     2   --> E    L_3       
     e( 11 - 11) =     -3.43228  eV     1   --> A_1  L_1       
     e( 12 - 12) =      1.18812  eV     1   --> A_1  L_1       
     e( 13 - 13) =      8.02402  eV     1   --> A_1  L_1       
     e( 14 - 15) =      8.13522  eV     2   --> E    L_3       
     e( 16 - 16) =     11.13061  eV     1   --> A_1  L_1       
     e( 17 - 18) =     11.57048  eV     2   --> E    L_3       
     e( 19 - 19) =     14.31729  eV     1   --> A_1  L_1       

 **************************************************************************

 **************************************************************************

                    xk=(   0.00000,   0.00000,   0.20031  )

     Band symmetry, C_3v (3m)   point group:

     e(  1 -  2) =    -13.62844  eV     2   --> E    L_3       
     e(  3 -  4) =    -13.50364  eV     2   --> E    L_3       
     e(  5 -  5) =    -13.48429  eV     1   --> A_1  L_1       
     e(  6 -  6) =    -13.35246  eV     1   --> A_1  L_1       
     e(  7 -  8) =    -13.33993  eV     2   --> E    L_3       
     e(  9 - 10) =    -13.23990  eV     2   --> E    L_3       
     e( 11 - 11) =     -3.41389  eV     1   --> A_1  L_1       
     e( 12 - 12) =      1.14495  eV     1   --> A_1  L_1       
     e( 13 - 13) =      8.03264  eV     1   --> A_1  L_1       
     e( 14 - 15) =      8.14313  eV     2   --> E    L_3       
     e( 16 - 16) =     11.08972  eV     1   --> A_1  L_1       
     e( 17 - 18) =     11.52060  eV     2   --> E    L_3       
     e( 19 - 19) =     14.31470  eV     1   --> A_1  L_1       

 **************************************************************************

 **************************************************************************

                    xk=(   0.00000,   0.00000,   0.21033  )

     Band symmetry, C_3v (3m)   point group:

     e(  1 -  2) =    -13.62695  eV     2   --> E    L_3       
     e(  3 -  4) =    -13.50302  eV     2   --> E    L_3       
     e(  5 -  5) =    -13.48367  eV     1   --> A_1  L_1       
     e(  6 -  6) =    -13.35303  eV     1   --> A_1  L_1       
     e(  7 -  8) =    -13.34042  eV     2   --> E    L_3       
     e(  9 - 10) =    -13.24155  eV     2   --> E    L_3       
     e( 11 - 11) =     -3.39465  eV     1   --> A_1  L_1       
     e( 12 - 12) =      1.10040  eV     1   --> A_1  L_1       
     e( 13 - 13) =      8.04123  eV     1   --> A_1  L_1       
     e( 14 - 15) =      8.15148  eV     2   --> E    L_3       
     e( 16 - 16) =     11.04834  eV     1   --> A_1  L_1       
     e( 17 - 18) =     11.46984  eV     2   --> E    L_3       
     e( 19 - 19) =     14.31605  eV     1   --> A_1  L_1       

 **************************************************************************

 **************************************************************************

                    xk=(   0.00000,   0.00000,   0.22034  )

     Band symmetry, C_3v (3m)   point group:

     e(  1 -  2) =    -13.62541  eV     2   --> E    L_3       
     e(  3 -  4) =    -13.50238  eV     2   --> E    L_3       
     e(  5 -  5) =    -13.48301  eV     1   --> A_1  L_1       
     e(  6 -  6) =    -13.35362  eV     1   --> A_1  L_1       
     e(  7 -  8) =    -13.34093  eV     2   --> E    L_3       
     e(  9 - 10) =    -13.24325  eV     2   --> E    L_3       
     e( 11 - 11) =     -3.37458  eV     1   --> A_1  L_1       
     e( 12 - 12) =      1.05457  eV     1   --> A_1  L_1       
     e( 13 - 13) =      8.04977  eV     1   --> A_1  L_1       
     e( 14 - 15) =      8.16026  eV     2   --> E    L_3       
     e( 16 - 16) =     11.00659  eV     1   --> A_1  L_1       
     e( 17 - 18) =     11.41837  eV     2   --> E    L_3       
     e( 19 - 19) =     14.32133  eV     1   --> A_1  L_1       

 **************************************************************************

 **************************************************************************

                    xk=(   0.00000,   0.00000,   0.23036  )

     Band symmetry, C_3v (3m)   point group:

     e(  1 -  2) =    -13.62381  eV     2   --> E    L_3       
     e(  3 -  4) =    -13.50172  eV     2   --> E    L_3       
     e(  5 -  5) =    -13.48234  eV     1   --> A_1  L_1       
     e(  6 -  6) =    -13.35423  eV     1   --> A_1  L_1       
     e(  7 -  8) =    -13.34146  eV     2   --> E    L_3       
     e(  9 - 10) =    -13.24501  eV     2   --> E    L_3       
     e( 11 - 11) =     -3.35370  eV     1   --> A_1  L_1       
     e( 12 - 12) =      1.00756  eV     1   --> A_1  L_1       
     e( 13 - 13) =      8.05822  eV     1   --> A_1  L_1       
     e( 14 - 15) =      8.16947  eV     2   --> E    L_3       
     e( 16 - 16) =     10.96459  eV     1   --> A_1  L_1       
     e( 17 - 18) =     11.36630  eV     2   --> E    L_3       
     e( 19 - 19) =     14.33052  eV     1   --> A_1  L_1       

 **************************************************************************

 **************************************************************************

                    xk=(   0.00000,   0.00000,   0.24037  )

     Band symmetry, C_3v (3m)   point group:

     e(  1 -  2) =    -13.62217  eV     2   --> E    L_3       
     e(  3 -  4) =    -13.50105  eV     2   --> E    L_3       
     e(  5 -  5) =    -13.48165  eV     1   --> A_1  L_1       
     e(  6 -  6) =    -13.35485  eV     1   --> A_1  L_1       
     e(  7 -  8) =    -13.34200  eV     2   --> E    L_3       
     e(  9 - 10) =    -13.24681  eV     2   --> E    L_3       
     e( 11 - 11) =     -3.33202  eV     1   --> A_1  L_1       
     e( 12 - 12) =      0.95946  eV     1   --> A_1  L_1       
     e( 13 - 13) =      8.06654  eV     1   --> A_1  L_1       
     e( 14 - 15) =      8.17911  eV     2   --> E    L_3       
     e( 16 - 16) =     10.92247  eV     1   --> A_1  L_1       
     e( 17 - 18) =     11.31378  eV     2   --> E    L_3       
     e( 19 - 19) =     14.34358  eV     1   --> A_1  L_1       

 **************************************************************************

 **************************************************************************

                    xk=(   0.00000,   0.00000,   0.25039  )

     Band symmetry, C_3v (3m)   point group:

     e(  1 -  2) =    -13.62048  eV     2   --> E    L_3       
     e(  3 -  4) =    -13.50036  eV     2   --> E    L_3       
     e(  5 -  5) =    -13.48093  eV     1   --> A_1  L_1       
     e(  6 -  6) =    -13.35550  eV     1   --> A_1  L_1       
     e(  7 -  8) =    -13.34255  eV     2   --> E    L_3       
     e(  9 - 10) =    -13.24867  eV     2   --> E    L_3       
     e( 11 - 11) =     -3.30958  eV     1   --> A_1  L_1       
     e( 12 - 12) =      0.91038  eV     1   --> A_1  L_1       
     e( 13 - 13) =      8.07472  eV     1   --> A_1  L_1       
     e( 14 - 15) =      8.18918  eV     2   --> E    L_3       
     e( 16 - 16) =     10.88032  eV     1   --> A_1  L_1       
     e( 17 - 18) =     11.26093  eV     2   --> E    L_3       
     e( 19 - 19) =     14.36047  eV     1   --> A_1  L_1       

 **************************************************************************

 **************************************************************************

                    xk=(   0.00000,   0.00000,   0.26040  )

     Band symmetry, C_3v (3m)   point group:

     e(  1 -  2) =    -13.61876  eV     2   --> E    L_3       
     e(  3 -  4) =    -13.49966  eV     2   --> E    L_3       
     e(  5 -  5) =    -13.48020  eV     1   --> A_1  L_1       
     e(  6 -  6) =    -13.35616  eV     1   --> A_1  L_1       
     e(  7 -  8) =    -13.34311  eV     2   --> E    L_3       
     e(  9 - 10) =    -13.25058  eV     2   --> E    L_3       
     e( 11 - 11) =     -3.28638  eV     1   --> A_1  L_1       
     e( 12 - 12) =      0.86042  eV     1   --> A_1  L_1       
     e( 13 - 13) =      8.08273  eV     1   --> A_1  L_1       
     e( 14 - 15) =      8.19967  eV     2   --> E    L_3       
     e( 16 - 16) =     10.83827  eV     1   --> A_1  L_1       
     e( 17 - 18) =     11.20785  eV     2   --> E    L_3       
     e( 19 - 19) =     14.38113  eV     1   --> A_1  L_1       

 **************************************************************************

 **************************************************************************

                    xk=(   0.00000,   0.00000,   0.27042  )

     Band symmetry, C_3v (3m)   point group:

     e(  1 -  2) =    -13.61699  eV     2   --> E    L_3       
     e(  3 -  4) =    -13.49895  eV     2   --> E    L_3       
     e(  5 -  5) =    -13.47945  eV     1   --> A_1  L_1       
     e(  6 -  6) =    -13.35684  eV     1   --> A_1  L_1       
     e(  7 -  8) =    -13.34368  eV     2   --> E    L_3       
     e(  9 - 10) =    -13.25252  eV     2   --> E    L_3       
     e( 11 - 11) =     -3.26247  eV     1   --> A_1  L_1       
     e( 12 - 12) =      0.80969  eV     1   --> A_1  L_1       
     e( 13 - 13) =      8.09055  eV     1   --> A_1  L_1       
     e( 14 - 15) =      8.21059  eV     2   --> E    L_3       
     e( 16 - 16) =     10.79639  eV     1   --> A_1  L_1       
     e( 17 - 18) =     11.15468  eV     2   --> E    L_3       
     e( 19 - 19) =     14.40551  eV     1   --> A_1  L_1       

 **************************************************************************

 **************************************************************************

                    xk=(   0.00000,   0.00000,   0.28044  )

     Band symmetry, C_3v (3m)   point group:

     e(  1 -  2) =    -13.61519  eV     2   --> E    L_3       
     e(  3 -  4) =    -13.49822  eV     2   --> E    L_3       
     e(  5 -  5) =    -13.47869  eV     1   --> A_1  L_1       
     e(  6 -  6) =    -13.35754  eV     1   --> A_1  L_1       
     e(  7 -  8) =    -13.34426  eV     2   --> E    L_3       
     e(  9 - 10) =    -13.25450  eV     2   --> E    L_3       
     e( 11 - 11) =     -3.23786  eV     1   --> A_1  L_1       
     e( 12 - 12) =      0.75829  eV     1   --> A_1  L_1       
     e( 13 - 13) =      8.09816  eV     1   --> A_1  L_1       
     e( 14 - 15) =      8.22192  eV     2   --> E    L_3       
     e( 16 - 16) =     10.75480  eV     1   --> A_1  L_1       
     e( 17 - 18) =     11.10151  eV     2   --> E    L_3       
     e( 19 - 19) =     14.43353  eV     1   --> A_1  L_1       

 **************************************************************************

 **************************************************************************

                    xk=(   0.00000,   0.00000,   0.29045  )

     Band symmetry, C_3v (3m)   point group:

     e(  1 -  2) =    -13.61336  eV     2   --> E    L_3       
     e(  3 -  4) =    -13.49749  eV     2   --> E    L_3       
     e(  5 -  5) =    -13.47791  eV     1   --> A_1  L_1       
     e(  6 -  6) =    -13.35825  eV     1   --> A_1  L_1       
     e(  7 -  8) =    -13.34484  eV     2   --> E    L_3       
     e(  9 - 10) =    -13.25651  eV     2   --> E    L_3       
     e( 11 - 11) =     -3.21259  eV     1   --> A_1  L_1       
     e( 12 - 12) =      0.70631  eV     1   --> A_1  L_1       
     e( 13 - 13) =      8.10556  eV     1   --> A_1  L_1       
     e( 14 - 15) =      8.23366  eV     2   --> E    L_3       
     e( 16 - 16) =     10.71358  eV     1   --> A_1  L_1       
     e( 17 - 18) =     11.04844  eV     2   --> E    L_3       
     e( 19 - 19) =     14.46513  eV     1   --> A_1  L_1       

 **************************************************************************

 **************************************************************************

                    xk=(   0.00000,   0.00000,   0.30047  )

     Band symmetry, C_3v (3m)   point group:

     e(  1 -  2) =    -13.61150  eV     2   --> E    L_3       
     e(  3 -  4) =    -13.49675  eV     2   --> E    L_3       
     e(  5 -  5) =    -13.47712  eV     1   --> A_1  L_1       
     e(  6 -  6) =    -13.35897  eV     1   --> A_1  L_1       
     e(  7 -  8) =    -13.34543  eV     2   --> E    L_3       
     e(  9 - 10) =    -13.25856  eV     2   --> E    L_3       
     e( 11 - 11) =     -3.18668  eV     1   --> A_1  L_1       
     e( 12 - 12) =      0.65386  eV     1   --> A_1  L_1       
     e( 13 - 13) =      8.11273  eV     1   --> A_1  L_1       
     e( 14 - 15) =      8.24580  eV     2   --> E    L_3       
     e( 16 - 16) =     10.67281  eV     1   --> A_1  L_1       
     e( 17 - 18) =     10.99558  eV     2   --> E    L_3       
     e( 19 - 19) =     14.50021  eV     1   --> A_1  L_1       

 **************************************************************************

 **************************************************************************

                    xk=(   0.00000,   0.00000,   0.31048  )

     Band symmetry, C_3v (3m)   point group:

     e(  1 -  2) =    -13.60962  eV     2   --> E    L_3       
     e(  3 -  4) =    -13.49601  eV     2   --> E    L_3       
     e(  5 -  5) =    -13.47631  eV     1   --> A_1  L_1       
     e(  6 -  6) =    -13.35970  eV     1   --> A_1  L_1       
     e(  7 -  8) =    -13.34602  eV     2   --> E    L_3       
     e(  9 - 10) =    -13.26062  eV     2   --> E    L_3       
     e( 11 - 11) =     -3.16019  eV     1   --> A_1  L_1       
     e( 12 - 12) =      0.60106  eV     1   --> A_1  L_1       
     e( 13 - 13) =      8.11967  eV     1   --> A_1  L_1       
     e( 14 - 15) =      8.25834  eV     2   --> E    L_3       
     e( 16 - 16) =     10.63258  eV     1   --> A_1  L_1       
     e( 17 - 18) =     10.94301  eV     2   --> E    L_3       
     e( 19 - 19) =     14.53868  eV     1   --> A_1  L_1       

 **************************************************************************

 **************************************************************************

                    xk=(   0.00000,   0.00000,   0.32050  )

     Band symmetry, C_3v (3m)   point group:

     e(  1 -  2) =    -13.60773  eV     2   --> E    L_3       
     e(  3 -  4) =    -13.49526  eV     2   --> E    L_3       
     e(  5 -  5) =    -13.47550  eV     1   --> A_1  L_1       
     e(  6 -  6) =    -13.36044  eV     1   --> A_1  L_1       
     e(  7 -  8) =    -13.34661  eV     2   --> E    L_3       
     e(  9 - 10) =    -13.26271  eV     2   --> E    L_3       
     e( 11 - 11) =     -3.13314  eV     1   --> A_1  L_1       
     e( 12 - 12) =      0.54799  eV     1   --> A_1  L_1       
     e( 13 - 13) =      8.12637  eV     1   --> A_1  L_1       
     e( 14 - 15) =      8.27125  eV     2   --> E    L_3       
     e( 16 - 16) =     10.59297  eV     1   --> A_1  L_1       
     e( 17 - 18) =     10.89082  eV     2   --> E    L_3       
     e( 19 - 19) =     14.58047  eV     1   --> A_1  L_1       

 **************************************************************************

 **************************************************************************

                    xk=(   0.00000,   0.00000,   0.33051  )

     Band symmetry, C_3v (3m)   point group:

     e(  1 -  2) =    -13.60582  eV     2   --> E    L_3       
     e(  3 -  4) =    -13.49452  eV     2   --> E    L_3       
     e(  5 -  5) =    -13.47469  eV     1   --> A_1  L_1       
     e(  6 -  6) =    -13.36119  eV     1   --> A_1  L_1       
     e(  7 -  8) =    -13.34720  eV     2   --> E    L_3       
     e(  9 - 10) =    -13.26481  eV     2   --> E    L_3       
     e( 11 - 11) =     -3.10557  eV     1   --> A_1  L_1       
     e( 12 - 12) =      0.49478  eV     1   --> A_1  L_1       
     e( 13 - 13) =      8.13284  eV     1   --> A_1  L_1       
     e( 14 - 15) =      8.28452  eV     2   --> E    L_3       
     e( 16 - 16) =     10.55405  eV     1   --> A_1  L_1       
     e( 17 - 18) =     10.83911  eV     2   --> E    L_3       
     e( 19 - 19) =     14.62545  eV     1   --> A_1  L_1       

 **************************************************************************

 **************************************************************************

                    xk=(   0.00000,   0.00000,   0.34053  )

     Band symmetry, C_3v (3m)   point group:

     e(  1 -  2) =    -13.60390  eV     2   --> E    L_3       
     e(  3 -  4) =    -13.49378  eV     2   --> E    L_3       
     e(  5 -  5) =    -13.47387  eV     1   --> A_1  L_1       
     e(  6 -  6) =    -13.36194  eV     1   --> A_1  L_1       
     e(  7 -  8) =    -13.34779  eV     2   --> E    L_3       
     e(  9 - 10) =    -13.26692  eV     2   --> E    L_3       
     e( 11 - 11) =     -3.07754  eV     1   --> A_1  L_1       
     e( 12 - 12) =      0.44152  eV     1   --> A_1  L_1       
     e( 13 - 13) =      8.13906  eV     1   --> A_1  L_1       
     e( 14 - 15) =      8.29815  eV     2   --> E    L_3       
     e( 16 - 16) =     10.51590  eV     1   --> A_1  L_1       
     e( 17 - 18) =     10.78796  eV     2   --> E    L_3       
     e( 19 - 19) =     14.67351  eV     1   --> A_1  L_1       

 **************************************************************************

 **************************************************************************

                    xk=(   0.00000,   0.00000,   0.35054  )

     Band symmetry, C_3v (3m)   point group:

     e(  1 -  2) =    -13.60198  eV     2   --> E    L_3       
     e(  3 -  4) =    -13.49304  eV     2   --> E    L_3       
     e(  5 -  5) =    -13.47304  eV     1   --> A_1  L_1       
     e(  6 -  6) =    -13.36270  eV     1   --> A_1  L_1       
     e(  7 -  8) =    -13.34837  eV     2   --> E    L_3       
     e(  9 - 10) =    -13.26903  eV     2   --> E    L_3       
     e( 11 - 11) =     -3.04910  eV     1   --> A_1  L_1       
     e( 12 - 12) =      0.38833  eV     1   --> A_1  L_1       
     e( 13 - 13) =      8.14503  eV     1   --> A_1  L_1       
     e( 14 - 15) =      8.31209  eV     2   --> E    L_3       
     e( 16 - 16) =     10.47857  eV     1   --> A_1  L_1       
     e( 17 - 18) =     10.73745  eV     2   --> E    L_3       
     e( 19 - 19) =     14.72455  eV     1   --> A_1  L_1       

 **************************************************************************

 **************************************************************************

                    xk=(   0.00000,   0.00000,   0.36056  )

     Band symmetry, C_3v (3m)   point group:

     e(  1 -  2) =    -13.60006  eV     2   --> E    L_3       
     e(  3 -  4) =    -13.49231  eV     2   --> E    L_3       
     e(  5 -  5) =    -13.47222  eV     1   --> A_1  L_1       
     e(  6 -  6) =    -13.36346  eV     1   --> A_1  L_1       
     e(  7 -  8) =    -13.34894  eV     2   --> E    L_3       
     e(  9 - 10) =    -13.27114  eV     2   --> E    L_3       
     e( 11 - 11) =     -3.02030  eV     1   --> A_1  L_1       
     e( 12 - 12) =      0.33532  eV     1   --> A_1  L_1       
     e( 13 - 13) =      8.15077  eV     1   --> A_1  L_1       
     e( 14 - 15) =      8.32634  eV     2   --> E    L_3       
     e( 16 - 16) =     10.44215  eV     1   --> A_1  L_1       
     e( 17 - 18) =     10.68766  eV     2   --> E    L_3       
     e( 19 - 19) =     14.77844  eV     1   --> A_1  L_1       

 **************************************************************************

 **************************************************************************

                    xk=(   0.00000,   0.00000,   0.37058  )

     Band symmetry, C_3v (3m)   point group:

     e(  1 -  2) =    -13.59815  eV     2   --> E    L_3       
     e(  3 -  4) =    -13.49159  eV     2   --> E    L_3       
     e(  5 -  5) =    -13.47139  eV     1   --> A_1  L_1       
     e(  6 -  6) =    -13.36422  eV     1   --> A_1  L_1       
     e(  7 -  8) =    -13.34950  eV     2   --> E    L_3       
     e(  9 - 10) =    -13.27324  eV     2   --> E    L_3       
     e( 11 - 11) =     -2.99121  eV     1   --> A_1  L_1       
     e( 12 - 12) =      0.28261  eV     1   --> A_1  L_1       
     e( 13 - 13) =      8.15628  eV     1   --> A_1  L_1       
     e( 14 - 15) =      8.34086  eV     2   --> E    L_3       
     e( 16 - 16) =     10.40668  eV     1   --> A_1  L_1       
     e( 17 - 18) =     10.63869  eV     2   --> E    L_3       
     e( 19 - 19) =     14.83504  eV     1   --> A_1  L_1       

 **************************************************************************

 **************************************************************************

                    xk=(   0.00000,   0.00000,   0.38059  )

     Band symmetry, C_3v (3m)   point group:

     e(  1 -  2) =    -13.59625  eV     2   --> E    L_3       
     e(  3 -  4) =    -13.49088  eV     2   --> E    L_3       
     e(  5 -  5) =    -13.47057  eV     1   --> A_1  L_1       
     e(  6 -  6) =    -13.36497  eV     1   --> A_1  L_1       
     e(  7 -  8) =    -13.35005  eV     2   --> E    L_3       
     e(  9 - 10) =    -13.27533  eV     2   --> E    L_3       
     e( 11 - 11) =     -2.96189  eV     1   --> A_1  L_1       
     e( 12 - 12) =      0.23031  eV     1   --> A_1  L_1       
     e( 13 - 13) =      8.16155  eV     1   --> A_1  L_1       
     e( 14 - 15) =      8.35562  eV     2   --> E    L_3       
     e( 16 - 16) =     10.37224  eV     1   --> A_1  L_1       
     e( 17 - 18) =     10.59061  eV     2   --> E    L_3       
     e( 19 - 19) =     14.89421  eV     1   --> A_1  L_1       

 **************************************************************************

 **************************************************************************

                    xk=(   0.00000,   0.00000,   0.39061  )

     Band symmetry, C_3v (3m)   point group:

     e(  1 -  2) =    -13.59437  eV     2   --> E    L_3       
     e(  3 -  4) =    -13.49018  eV     2   --> E    L_3       
     e(  5 -  5) =    -13.46976  eV     1   --> A_1  L_1       
     e(  6 -  6) =    -13.36572  eV     1   --> A_1  L_1       
     e(  7 -  8) =    -13.35059  eV     2   --> E    L_3       
     e(  9 - 10) =    -13.27740  eV     2   --> E    L_3       
     e( 11 - 11) =     -2.93242  eV     1   --> A_1  L_1       
     e( 12 - 12) =      0.17855  eV     1   --> A_1  L_1       
     e( 13 - 13) =      8.16659  eV     1   --> A_1  L_1       
     e( 14 - 15) =      8.37059  eV     2   --> E    L_3       
     e( 16 - 16) =     10.33888  eV     1   --> A_1  L_1       
     e( 17 - 18) =     10.54351  eV     2   --> E    L_3       
     e( 19 - 19) =     14.95580  eV     1   --> A_1  L_1       

 **************************************************************************

 **************************************************************************

                    xk=(   0.00000,   0.00000,   0.40062  )

     Band symmetry, C_3v (3m)   point group:

     e(  1 -  2) =    -13.59252  eV     2   --> E    L_3       
     e(  3 -  4) =    -13.48950  eV     2   --> E    L_3       
     e(  5 -  5) =    -13.46896  eV     1   --> A_1  L_1       
     e(  6 -  6) =    -13.36646  eV     1   --> A_1  L_1       
     e(  7 -  8) =    -13.35111  eV     2   --> E    L_3       
     e(  9 - 10) =    -13.27944  eV     2   --> E    L_3       
     e( 11 - 11) =     -2.90287  eV     1   --> A_1  L_1       
     e( 12 - 12) =      0.12746  eV     1   --> A_1  L_1       
     e( 13 - 13) =      8.17140  eV     1   --> A_1  L_1       
     e( 14 - 15) =      8.38572  eV     2   --> E    L_3       
     e( 16 - 16) =     10.30666  eV     1   --> A_1  L_1       
     e( 17 - 18) =     10.49747  eV     2   --> E    L_3       
     e( 19 - 19) =     15.01963  eV     1   --> A_1  L_1       

 **************************************************************************

 **************************************************************************

                    xk=(   0.00000,   0.00000,   0.41064  )

     Band symmetry, C_3v (3m)   point group:

     e(  1 -  2) =    -13.59070  eV     2   --> E    L_3       
     e(  3 -  4) =    -13.48884  eV     2   --> E    L_3       
     e(  5 -  5) =    -13.46817  eV     1   --> A_1  L_1       
     e(  6 -  6) =    -13.36719  eV     1   --> A_1  L_1       
     e(  7 -  8) =    -13.35162  eV     2   --> E    L_3       
     e(  9 - 10) =    -13.28145  eV     2   --> E    L_3       
     e( 11 - 11) =     -2.87335  eV     1   --> A_1  L_1       
     e( 12 - 12) =      0.07716  eV     1   --> A_1  L_1       
     e( 13 - 13) =      8.17599  eV     1   --> A_1  L_1       
     e( 14 - 15) =      8.40097  eV     2   --> E    L_3       
     e( 16 - 16) =     10.27562  eV     1   --> A_1  L_1       
     e( 17 - 18) =     10.45258  eV     2   --> E    L_3       
     e( 19 - 19) =     15.08552  eV     1   --> A_1  L_1       

 **************************************************************************

 **************************************************************************

                    xk=(   0.00000,   0.00000,   0.42065  )

     Band symmetry, C_3v (3m)   point group:

     e(  1 -  2) =    -13.58891  eV     2   --> E    L_3       
     e(  3 -  4) =    -13.48819  eV     2   --> E    L_3       
     e(  5 -  5) =    -13.46739  eV     1   --> A_1  L_1       
     e(  6 -  6) =    -13.36791  eV     1   --> A_1  L_1       
     e(  7 -  8) =    -13.35210  eV     2   --> E    L_3       
     e(  9 - 10) =    -13.28342  eV     2   --> E    L_3       
     e( 11 - 11) =     -2.84394  eV     1   --> A_1  L_1       
     e( 12 - 12) =      0.02781  eV     1   --> A_1  L_1       
     e( 13 - 13) =      8.18035  eV     1   --> A_1  L_1       
     e( 14 - 15) =      8.41628  eV     2   --> E    L_3       
     e( 16 - 16) =     10.24584  eV     1   --> A_1  L_1       
     e( 17 - 18) =     10.40893  eV     2   --> E    L_3       
     e( 19 - 19) =     15.15328  eV     1   --> A_1  L_1       

 **************************************************************************

 **************************************************************************

                    xk=(   0.00000,   0.00000,   0.43067  )

     Band symmetry, C_3v (3m)   point group:

     e(  1 -  2) =    -13.58717  eV     2   --> E    L_3       
     e(  3 -  4) =    -13.48757  eV     2   --> E    L_3       
     e(  5 -  5) =    -13.46664  eV     1   --> A_1  L_1       
     e(  6 -  6) =    -13.36862  eV     1   --> A_1  L_1       
     e(  7 -  8) =    -13.35257  eV     2   --> E    L_3       
     e(  9 - 10) =    -13.28535  eV     2   --> E    L_3       
     e( 11 - 11) =     -2.81475  eV     1   --> A_1  L_1       
     e( 12 - 12) =     -0.02046  eV     1   --> A_1  L_1       
     e( 13 - 13) =      8.18450  eV     1   --> A_1  L_1       
     e( 14 - 15) =      8.43161  eV     2   --> E    L_3       
     e( 16 - 16) =     10.21734  eV     1   --> A_1  L_1       
     e( 17 - 18) =     10.36662  eV     2   --> E    L_3       
     e( 19 - 19) =     15.22268  eV     1   --> A_1  L_1       

 **************************************************************************

 **************************************************************************

                    xk=(   0.00000,   0.00000,   0.44069  )

     Band symmetry, C_3v (3m)   point group:

     e(  1 -  2) =    -13.58549  eV     2   --> E    L_3       
     e(  3 -  4) =    -13.48698  eV     2   --> E    L_3       
     e(  5 -  5) =    -13.46590  eV     1   --> A_1  L_1       
     e(  6 -  6) =    -13.36930  eV     1   --> A_1  L_1       
     e(  7 -  8) =    -13.35301  eV     2   --> E    L_3       
     e(  9 - 10) =    -13.28722  eV     2   --> E    L_3       
     e( 11 - 11) =     -2.78590  eV     1   --> A_1  L_1       
     e( 12 - 12) =     -0.06750  eV     1   --> A_1  L_1       
     e( 13 - 13) =      8.18843  eV     1   --> A_1  L_1       
     e( 14 - 15) =      8.44687  eV     2   --> E    L_3       
     e( 16 - 16) =     10.19019  eV     1   --> A_1  L_1       
     e( 17 - 18) =     10.32575  eV     2   --> E    L_3       
     e( 19 - 19) =     15.29347  eV     1   --> A_1  L_1       

 **************************************************************************

 **************************************************************************

                    xk=(   0.00000,   0.00000,   0.45070  )

     Band symmetry, C_3v (3m)   point group:

     e(  1 -  2) =    -13.58385  eV     2   --> E    L_3       
     e(  3 -  4) =    -13.48641  eV     2   --> E    L_3       
     e(  5 -  5) =    -13.46518  eV     1   --> A_1  L_1       
     e(  6 -  6) =    -13.36996  eV     1   --> A_1  L_1       
     e(  7 -  8) =    -13.35343  eV     2   --> E    L_3       
     e(  9 - 10) =    -13.28902  eV     2   --> E    L_3       
     e( 11 - 11) =     -2.75752  eV     1   --> A_1  L_1       
     e( 12 - 12) =     -0.11313  eV     1   --> A_1  L_1       
     e( 13 - 13) =      8.19214  eV     1   --> A_1  L_1       
     e( 14 - 15) =      8.46200  eV     2   --> E    L_3       
     e( 16 - 16) =     10.16443  eV     1   --> A_1  L_1       
     e( 17 - 18) =     10.28642  eV     2   --> E    L_3       
     e( 19 - 19) =     15.36537  eV     1   --> A_1  L_1       

 **************************************************************************

 **************************************************************************

                    xk=(   0.00000,   0.00000,   0.46072  )

     Band symmetry, C_3v (3m)   point group:

     e(  1 -  2) =    -13.58229  eV     2   --> E    L_3       
     e(  3 -  4) =    -13.48587  eV     2   --> E    L_3       
     e(  5 -  5) =    -13.46450  eV     1   --> A_1  L_1       
     e(  6 -  6) =    -13.37060  eV     1   --> A_1  L_1       
     e(  7 -  8) =    -13.35382  eV     2   --> E    L_3       
     e(  9 - 10) =    -13.29076  eV     2   --> E    L_3       
     e( 11 - 11) =     -2.72975  eV     1   --> A_1  L_1       
     e( 12 - 12) =     -0.15719  eV     1   --> A_1  L_1       
     e( 13 - 13) =      8.19563  eV     1   --> A_1  L_1       
     e( 14 - 15) =      8.47691  eV     2   --> E    L_3       
     e( 16 - 16) =     10.14009  eV     1   --> A_1  L_1       
     e( 17 - 18) =     10.24873  eV     2   --> E    L_3       
     e( 19 - 19) =     15.43806  eV     1   --> A_1  L_1       

 **************************************************************************

 **************************************************************************

                    xk=(   0.00000,   0.00000,   0.47073  )

     Band symmetry, C_3v (3m)   point group:

     e(  1 -  2) =    -13.58079  eV     2   --> E    L_3       
     e(  3 -  4) =    -13.48536  eV     2   --> E    L_3       
     e(  5 -  5) =    -13.46384  eV     1   --> A_1  L_1       
     e(  6 -  6) =    -13.37122  eV     1   --> A_1  L_1       
     e(  7 -  8) =    -13.35418  eV     2   --> E    L_3       
     e(  9 - 10) =    -13.29243  eV     2   --> E    L_3       
     e( 11 - 11) =     -2.70272  eV     1   --> A_1  L_1       
     e( 12 - 12) =     -0.19951  eV     1   --> A_1  L_1       
     e( 13 - 13) =      8.19890  eV     1   --> A_1  L_1       
     e( 14 - 15) =      8.49153  eV     2   --> E    L_3       
     e( 16 - 16) =     10.11724  eV     1   --> A_1  L_1       
     e( 17 - 18) =     10.21281  eV     2   --> E    L_3       
     e( 19 - 19) =     15.51117  eV     1   --> A_1  L_1       

 **************************************************************************

 **************************************************************************

                    xk=(   0.00000,   0.00000,   0.48075  )

     Band symmetry, C_3v (3m)   point group:

     e(  1 -  2) =    -13.57937  eV     2   --> E    L_3       
     e(  3 -  4) =    -13.48488  eV     2   --> E    L_3       
     e(  5 -  5) =    -13.46321  eV     1   --> A_1  L_1       
     e(  6 -  6) =    -13.37180  eV     1   --> A_1  L_1       
     e(  7 -  8) =    -13.35452  eV     2   --> E    L_3       
     e(  9 - 10) =    -13.29401  eV     2   --> E    L_3       
     e( 11 - 11) =     -2.67661  eV     1   --> A_1  L_1       
     e( 12 - 12) =     -0.23989  eV     1   --> A_1  L_1       
     e( 13 - 13) =      8.20195  eV     1   --> A_1  L_1       
     e( 14 - 15) =      8.50575  eV     2   --> E    L_3       
     e( 16 - 16) =     10.09590  eV     1   --> A_1  L_1       
     e( 17 - 18) =     10.17878  eV     2   --> E    L_3       
     e( 19 - 19) =     15.58427  eV     1   --> A_1  L_1       

 **************************************************************************

 **************************************************************************

                    xk=(   0.00000,   0.00000,   0.49076  )

     Band symmetry, C_3v (3m)   point group:

     e(  1 -  2) =    -13.57804  eV     2   --> E    L_3       
     e(  3 -  4) =    -13.48443  eV     2   --> E    L_3       
     e(  5 -  5) =    -13.46263  eV     1   --> A_1  L_1       
     e(  6 -  6) =    -13.37235  eV     1   --> A_1  L_1       
     e(  7 -  8) =    -13.35483  eV     2   --> E    L_3       
     e(  9 - 10) =    -13.29550  eV     2   --> E    L_3       
     e( 11 - 11) =     -2.65158  eV     1   --> A_1  L_1       
     e( 12 - 12) =     -0.27813  eV     1   --> A_1  L_1       
     e( 13 - 13) =      8.20478  eV     1   --> A_1  L_1       
     e( 14 - 15) =      8.51946  eV     2   --> E    L_3       
     e( 16 - 16) =     10.07612  eV     1   --> A_1  L_1       
     e( 17 - 18) =     10.14675  eV     2   --> E    L_3       
     e( 19 - 19) =     15.65686  eV     1   --> A_1  L_1       

 **************************************************************************

 **************************************************************************

                    xk=(   0.00000,   0.00000,   0.50078  )

     Band symmetry, C_3v (3m)   point group:

     e(  1 -  2) =    -13.57680  eV     2   --> E    L_3       
     e(  3 -  4) =    -13.48402  eV     2   --> E    L_3       
     e(  5 -  5) =    -13.46208  eV     1   --> A_1  L_1       
     e(  6 -  6) =    -13.37286  eV     1   --> A_1  L_1       
     e(  7 -  8) =    -13.35512  eV     2   --> E    L_3       
     e(  9 - 10) =    -13.29689  eV     2   --> E    L_3       
     e( 11 - 11) =     -2.62782  eV     1   --> A_1  L_1       
     e( 12 - 12) =     -0.31404  eV     1   --> A_1  L_1       
     e( 13 - 13) =      8.20738  eV     1   --> A_1  L_1       
     e( 14 - 15) =      8.53256  eV     2   --> E    L_3       
     e( 16 - 16) =     10.05792  eV     1   --> A_1  L_1       
     e( 17 - 18) =     10.11687  eV     2   --> E    L_3       
     e( 19 - 19) =     15.72837  eV     1   --> A_1  L_1       

 **************************************************************************

 **************************************************************************

                    xk=(   0.00000,   0.00000,   0.51079  )

     Band symmetry, C_3v (3m)   point group:

     e(  1 -  2) =    -13.57565  eV     2   --> E    L_3       
     e(  3 -  4) =    -13.48365  eV     2   --> E    L_3       
     e(  5 -  5) =    -13.46157  eV     1   --> A_1  L_1       
     e(  6 -  6) =    -13.37334  eV     1   --> A_1  L_1       
     e(  7 -  8) =    -13.35537  eV     2   --> E    L_3       
     e(  9 - 10) =    -13.29817  eV     2   --> E    L_3       
     e( 11 - 11) =     -2.60551  eV     1   --> A_1  L_1       
     e( 12 - 12) =     -0.34741  eV     1   --> A_1  L_1       
     e( 13 - 13) =      8.20975  eV     1   --> A_1  L_1       
     e( 14 - 15) =      8.54494  eV     2   --> E    L_3       
     e( 16 - 16) =     10.04135  eV     1   --> A_1  L_1       
     e( 17 - 18) =     10.08926  eV     2   --> E    L_3       
     e( 19 - 19) =     15.79810  eV     1   --> A_1  L_1       

 **************************************************************************

 **************************************************************************

                    xk=(   0.00000,   0.00000,   0.52081  )

     Band symmetry, C_3v (3m)   point group:

     e(  1 -  2) =    -13.57461  eV     2   --> E    L_3       
     e(  3 -  4) =    -13.48331  eV     2   --> E    L_3       
     e(  5 -  5) =    -13.46110  eV     1   --> A_1  L_1       
     e(  6 -  6) =    -13.37377  eV     1   --> A_1  L_1       
     e(  7 -  8) =    -13.35559  eV     2   --> E    L_3       
     e(  9 - 10) =    -13.29934  eV     2   --> E    L_3       
     e( 11 - 11) =     -2.58484  eV     1   --> A_1  L_1       
     e( 12 - 12) =     -0.37802  eV     1   --> A_1  L_1       
     e( 13 - 13) =      8.21188  eV     1   --> A_1  L_1       
     e( 14 - 15) =      8.55646  eV     2   --> E    L_3       
     e( 16 - 16) =     10.02644  eV     1   --> A_1  L_1       
     e( 17 - 18) =     10.06406  eV     2   --> E    L_3       
     e( 19 - 19) =     15.86525  eV     1   --> A_1  L_1       

 **************************************************************************

 **************************************************************************

                    xk=(   0.00000,   0.00000,   0.53083  )

     Band symmetry, C_3v (3m)   point group:

     e(  1 -  2) =    -13.57367  eV     2   --> E    L_3       
     e(  3 -  4) =    -13.48301  eV     2   --> E    L_3       
     e(  5 -  5) =    -13.46069  eV     1   --> A_1  L_1       
     e(  6 -  6) =    -13.37416  eV     1   --> A_1  L_1       
     e(  7 -  8) =    -13.35579  eV     2   --> E    L_3       
     e(  9 - 10) =    -13.30039  eV     2   --> E    L_3       
     e( 11 - 11) =     -2.56600  eV     1   --> A_1  L_1       
     e( 12 - 12) =     -0.40567  eV     1   --> A_1  L_1       
     e( 13 - 13) =      8.21378  eV     1   --> A_1  L_1       
     e( 14 - 15) =      8.56701  eV     2   --> E    L_3       
     e( 16 - 16) =     10.01321  eV     1   --> A_1  L_1       
     e( 17 - 18) =     10.04142  eV     2   --> E    L_3       
     e( 19 - 19) =     15.92889  eV     1   --> A_1  L_1       

 **************************************************************************

 **************************************************************************

                    xk=(   0.00000,   0.00000,   0.54084  )

     Band symmetry, C_3v (3m)   point group:

     e(  1 -  2) =    -13.57285  eV     2   --> E    L_3       
     e(  3 -  4) =    -13.48275  eV     2   --> E    L_3       
     e(  5 -  5) =    -13.46032  eV     1   --> A_1  L_1       
     e(  6 -  6) =    -13.37451  eV     1   --> A_1  L_1       
     e(  7 -  8) =    -13.35596  eV     2   --> E    L_3       
     e(  9 - 10) =    -13.30132  eV     2   --> E    L_3       
     e( 11 - 11) =     -2.54920  eV     1   --> A_1  L_1       
     e( 12 - 12) =     -0.43014  eV     1   --> A_1  L_1       
     e( 13 - 13) =      8.21544  eV     1   --> A_1  L_1       
     e( 14 - 15) =      8.57646  eV     2   --> E    L_3       
     e( 16 - 16) =     10.00169  eV     1   --> A_1  L_1       
     e( 17 - 18) =     10.02145  eV     2   --> E    L_3       
     e( 19 - 19) =     15.98796  eV     1   --> A_1  L_1       

 **************************************************************************

 **************************************************************************

                    xk=(   0.00000,   0.00000,   0.55086  )

     Band symmetry, C_3v (3m)   point group:

     e(  1 -  2) =    -13.57214  eV     2   --> E    L_3       
     e(  3 -  4) =    -13.48252  eV     2   --> E    L_3       
     e(  5 -  5) =    -13.46001  eV     1   --> A_1  L_1       
     e(  6 -  6) =    -13.37480  eV     1   --> A_1  L_1       
     e(  7 -  8) =    -13.35610  eV     2   --> E    L_3       
     e(  9 - 10) =    -13.30211  eV     2   --> E    L_3       
     e( 11 - 11) =     -2.53461  eV     1   --> A_1  L_1       
     e( 12 - 12) =     -0.45123  eV     1   --> A_1  L_1       
     e( 13 - 13) =      8.21684  eV     1   --> A_1  L_1       
     e( 14 - 15) =      8.58470  eV     2   --> E    L_3       
     e( 16 - 16) =      9.99190  eV     1   --> A_1  L_1       
     e( 17 - 18) =     10.00431  eV     2   --> E    L_3       
     e( 19 - 19) =     16.04124  eV     1   --> A_1  L_1       

 **************************************************************************

 **************************************************************************

                    xk=(   0.00000,   0.00000,   0.56087  )

     Band symmetry, C_3v (3m)   point group:

     e(  1 -  2) =    -13.57156  eV     2   --> E    L_3       
     e(  3 -  4) =    -13.48234  eV     2   --> E    L_3       
     e(  5 -  5) =    -13.45975  eV     1   --> A_1  L_1       
     e(  6 -  6) =    -13.37504  eV     1   --> A_1  L_1       
     e(  7 -  8) =    -13.35622  eV     2   --> E    L_3       
     e(  9 - 10) =    -13.30277  eV     2   --> E    L_3       
     e( 11 - 11) =     -2.52241  eV     1   --> A_1  L_1       
     e( 12 - 12) =     -0.46878  eV     1   --> A_1  L_1       
     e( 13 - 13) =      8.21800  eV     1   --> A_1  L_1       
     e( 14 - 15) =      8.59161  eV     2   --> E    L_3       
     e( 16 - 16) =      9.98387  eV     1   --> A_1  L_1       
     e( 17 - 18) =      9.99009  eV     2   --> E    L_3       
     e( 19 - 19) =     16.08744  eV     1   --> A_1  L_1       

 **************************************************************************

 **************************************************************************

                    xk=(   0.00000,   0.00000,   0.57089  )

     Band symmetry, C_3v (3m)   point group:

     e(  1 -  2) =    -13.57111  eV     2   --> E    L_3       
     e(  3 -  4) =    -13.48220  eV     2   --> E    L_3       
     e(  5 -  5) =    -13.45955  eV     1   --> A_1  L_1       
     e(  6 -  6) =    -13.37523  eV     1   --> A_1  L_1       
     e(  7 -  8) =    -13.35631  eV     2   --> E    L_3       
     e(  9 - 10) =    -13.30329  eV     2   --> E    L_3       
     e( 11 - 11) =     -2.51275  eV     1   --> A_1  L_1       
     e( 12 - 12) =     -0.48260  eV     1   --> A_1  L_1       
     e( 13 - 13) =      8.21891  eV     1   --> A_1  L_1       
     e( 14 - 15) =      8.59710  eV     2   --> E    L_3       
     e( 16 - 16) =      9.97760  eV     1   --> A_1  L_1       
     e( 17 - 18) =      9.97892  eV     2   --> E    L_3       
     e( 19 - 19) =     16.12521  eV     1   --> A_1  L_1       

 **************************************************************************

 **************************************************************************

                    xk=(   0.00000,   0.00000,   0.58090  )

     Band symmetry, C_3v (3m)   point group:

     e(  1 -  2) =    -13.57078  eV     2   --> E    L_3       
     e(  3 -  4) =    -13.48210  eV     2   --> E    L_3       
     e(  5 -  5) =    -13.45940  eV     1   --> A_1  L_1       
     e(  6 -  6) =    -13.37537  eV     1   --> A_1  L_1       
     e(  7 -  8) =    -13.35637  eV     2   --> E    L_3       
     e(  9 - 10) =    -13.30366  eV     2   --> E    L_3       
     e( 11 - 11) =     -2.50575  eV     1   --> A_1  L_1       
     e( 12 - 12) =     -0.49258  eV     1   --> A_1  L_1       
     e( 13 - 13) =      8.21955  eV     1   --> A_1  L_1       
     e( 14 - 15) =      8.60108  eV     2   --> E    L_3       
     e( 16 - 17) =      9.97087  eV     2   --> E    L_3       
     e( 18 - 18) =      9.97311  eV     1   --> A_1  L_1       
     e( 19 - 19) =     16.15330  eV     1   --> A_1  L_1       

 **************************************************************************

 **************************************************************************

                    xk=(   0.00000,   0.00000,   0.59092  )

     Band symmetry, C_3v (3m)   point group:

     e(  1 -  2) =    -13.57058  eV     2   --> E    L_3       
     e(  3 -  4) =    -13.48204  eV     2   --> E    L_3       
     e(  5 -  5) =    -13.45931  eV     1   --> A_1  L_1       
     e(  6 -  6) =    -13.37546  eV     1   --> A_1  L_1       
     e(  7 -  8) =    -13.35641  eV     2   --> E    L_3       
     e(  9 - 10) =    -13.30388  eV     2   --> E    L_3       
     e( 11 - 11) =     -2.50151  eV     1   --> A_1  L_1       
     e( 12 - 12) =     -0.49860  eV     1   --> A_1  L_1       
     e( 13 - 13) =      8.21994  eV     1   --> A_1  L_1       
     e( 14 - 15) =      8.60349  eV     2   --> E    L_3       
     e( 16 - 17) =      9.96601  eV     2   --> E    L_3       
     e( 18 - 18) =      9.97042  eV     1   --> A_1  L_1       
     e( 19 - 19) =     16.17063  eV     1   --> A_1  L_1       

 **************************************************************************

 **************************************************************************

                    xk=(   0.00000,   0.00000,   0.60093  )

     point group D_3d (-3m) 
     there are  6 classes
     the character table:

       E     2C3   3C2'  i     2S6   3s_d 
A_1g   1.00  1.00  1.00  1.00  1.00  1.00
A_2g   1.00  1.00 -1.00  1.00  1.00 -1.00
E_g    2.00 -1.00  0.00  2.00 -1.00  0.00
A_1u   1.00  1.00  1.00 -1.00 -1.00 -1.00
A_2u   1.00  1.00 -1.00 -1.00 -1.00  1.00
E_u    2.00 -1.00  0.00 -2.00  1.00  0.00

     the symmetry operations in each class and the name of the first element:

     E        1
                                                                 
     2C3      3    4
                                                                 
     3C2'     2    5    6
                                                                 
     i        7
                                                                 
     2S6      9   10
                                                                 
     3s_d     8   11   12
                                                                 

     Band symmetry, D_3d (-3m)  point group:

     e(  1 -  2) =    -13.57052  eV     2   --> E_g  L_3       
     e(  3 -  4) =    -13.48201  eV     2   --> E_u  L_3'      
     e(  5 -  5) =    -13.45928  eV     1   --> A_2u L_2'      
     e(  6 -  6) =    -13.37548  eV     1   --> A_1g L_1       
     e(  7 -  8) =    -13.35642  eV     2   --> E_g  L_3       
     e(  9 - 10) =    -13.30396  eV     2   --> E_u  L_3'      
     e( 11 - 11) =     -2.50009  eV     1   --> A_1g L_1       
     e( 12 - 12) =     -0.50062  eV     1   --> A_2u L_2'      
     e( 13 - 13) =      8.22007  eV     1   --> A_2u L_2'      
     e( 14 - 15) =      8.60430  eV     2   --> E_g  L_3       
     e( 16 - 17) =      9.96439  eV     2   --> E_u  L_3'      
     e( 18 - 18) =      9.96952  eV     1   --> A_1g L_1       
     e( 19 - 19) =     16.17649  eV     1   --> A_1g L_1       

 **************************************************************************

 **************************************************************************

                    xk=(   0.00899,   0.00000,   0.60093  )

     point group C_2  (2)   
     there are  2 classes
     the character table:

       E     C2   
A      1.00  1.00
B      1.00 -1.00

     the symmetry operations in each class and the name of the first element:

     E        1
                                                                 
     C2       2
                                                                 

     Band symmetry, C_2  (2)    point group:

     e(  1 -  2) =    -13.57053  eV     2   --> A              
     e(  1 -  2) =    -13.57053  eV     2   --> B              
     e(  3 -  4) =    -13.48202  eV     2   --> A              
     e(  3 -  4) =    -13.48202  eV     2   --> B              
     e(  5 -  5) =    -13.45928  eV     1   --> B              
     e(  6 -  6) =    -13.37548  eV     1   --> A              
     e(  7 -  8) =    -13.35643  eV     2   --> A              
     e(  7 -  8) =    -13.35643  eV     2   --> B              
     e(  9 - 10) =    -13.30397  eV     2   --> A              
     e(  9 - 10) =    -13.30397  eV     2   --> B              
     e( 11 - 11) =     -2.49972  eV     1   --> A              
     e( 12 - 12) =     -0.50057  eV     1   --> B              
     e( 13 - 13) =      8.19937  eV     1   --> B              
     e( 14 - 14) =      8.60139  eV     1   --> A              
     e( 15 - 15) =      8.62305  eV     1   --> B              
     e( 16 - 16) =      9.87934  eV     1   --> A              
     e( 17 - 17) =      9.96786  eV     1   --> B              
     e( 18 - 18) =     10.05818  eV     1   --> A              
     e( 19 - 19) =     16.17450  eV     1   --> A              

 **************************************************************************

 **************************************************************************

                    xk=(   0.01799,   0.00000,   0.60093  )

     Band symmetry, C_2  (2)    point group:

     e(  1 -  2) =    -13.57058  eV     2   --> A              
     e(  1 -  2) =    -13.57058  eV     2   --> B              
     e(  3 -  4) =    -13.48203  eV     2   --> A              
     e(  3 -  4) =    -13.48203  eV     2   --> B              
     e(  5 -  5) =    -13.45928  eV     1   --> B              
     e(  6 -  6) =    -13.37548  eV     1   --> A              
     e(  7 -  8) =    -13.35647  eV     2   --> A              
     e(  7 -  8) =    -13.35647  eV     2   --> B              
     e(  9 -  9) =    -13.30401  eV     1   --> A              
     e( 10 - 10) =    -13.30387  eV     1   --> B              
     e( 11 - 11) =     -2.49861  eV     1   --> A              
     e( 12 - 12) =     -0.50040  eV     1   --> B              
     e( 13 - 13) =      8.14635  eV     1   --> B              
     e( 14 - 14) =      8.59258  eV     1   --> A              
     e( 15 - 15) =      8.67015  eV     1   --> B              
     e( 16 - 16) =      9.79595  eV     1   --> A              
     e( 17 - 17) =      9.97834  eV     1   --> B              
     e( 18 - 18) =     10.15248  eV     1   --> A              
     e( 19 - 19) =     16.16855  eV     1   --> A              

 **************************************************************************

 **************************************************************************

                    xk=(   0.02698,   0.00000,   0.60093  )

     Band symmetry, C_2  (2)    point group:

     e(  1 -  1) =    -13.57067  eV     1   --> A              
     e(  2 -  2) =    -13.57045  eV     1   --> B              
     e(  3 -  3) =    -13.48205  eV     1   --> A              
     e(  4 -  4) =    -13.48187  eV     1   --> B              
     e(  5 -  5) =    -13.45927  eV     1   --> B              
     e(  6 -  6) =    -13.37548  eV     1   --> A              
     e(  7 -  7) =    -13.35653  eV     1   --> A              
     e(  8 -  8) =    -13.35640  eV     1   --> B              
     e(  9 -  9) =    -13.30408  eV     1   --> A              
     e( 10 - 10) =    -13.30377  eV     1   --> B              
     e( 11 - 11) =     -2.49676  eV     1   --> A              
     e( 12 - 12) =     -0.50013  eV     1   --> B              
     e( 13 - 13) =      8.07536  eV     1   --> B              
     e( 14 - 14) =      8.57772  eV     1   --> A              
     e( 15 - 15) =      8.73110  eV     1   --> B              
     e( 16 - 16) =      9.71730  eV     1   --> A              
     e( 17 - 17) =      9.99597  eV     1   --> B              
     e( 18 - 18) =     10.24946  eV     1   --> A              
     e( 19 - 19) =     16.15869  eV     1   --> A              

 **************************************************************************

 **************************************************************************

                    xk=(   0.03598,   0.00000,   0.60093  )

     Band symmetry, C_2  (2)    point group:

     e(  1 -  1) =    -13.57078  eV     1   --> A              
     e(  2 -  2) =    -13.57040  eV     1   --> B              
     e(  3 -  3) =    -13.48207  eV     1   --> A              
     e(  4 -  4) =    -13.48175  eV     1   --> B              
     e(  5 -  5) =    -13.45926  eV     1   --> B              
     e(  6 -  6) =    -13.37548  eV     1   --> A              
     e(  7 -  7) =    -13.35661  eV     1   --> A              
     e(  8 -  8) =    -13.35638  eV     1   --> B              
     e(  9 -  9) =    -13.30418  eV     1   --> A              
     e( 10 - 10) =    -13.30362  eV     1   --> B              
     e( 11 - 11) =     -2.49418  eV     1   --> A              
     e( 12 - 12) =     -0.49976  eV     1   --> B              
     e( 13 - 13) =      7.99515  eV     1   --> B              
     e( 14 - 14) =      8.55659  eV     1   --> A              
     e( 15 - 15) =      8.79690  eV     1   --> B              
     e( 16 - 16) =      9.64400  eV     1   --> A              
     e( 17 - 17) =     10.02101  eV     1   --> B              
     e( 18 - 18) =     10.34876  eV     1   --> A              
     e( 19 - 19) =     16.14500  eV     1   --> A              

 **************************************************************************

 **************************************************************************

                    xk=(   0.04497,   0.00000,   0.60093  )

     Band symmetry, C_2  (2)    point group:

     e(  1 -  1) =    -13.57093  eV     1   --> A              
     e(  2 -  2) =    -13.57034  eV     1   --> B              
     e(  3 -  3) =    -13.48210  eV     1   --> A              
     e(  4 -  4) =    -13.48161  eV     1   --> B              
     e(  5 -  5) =    -13.45924  eV     1   --> B              
     e(  6 -  6) =    -13.37549  eV     1   --> A              
     e(  7 -  7) =    -13.35671  eV     1   --> A              
     e(  8 -  8) =    -13.35636  eV     1   --> B              
     e(  9 -  9) =    -13.30431  eV     1   --> A              
     e( 10 - 10) =    -13.30343  eV     1   --> B              
     e( 11 - 11) =     -2.49085  eV     1   --> A              
     e( 12 - 12) =     -0.49929  eV     1   --> B              
     e( 13 - 13) =      7.91006  eV     1   --> B              
     e( 14 - 14) =      8.52893  eV     1   --> A              
     e( 15 - 15) =      8.86294  eV     1   --> B              
     e( 16 - 16) =      9.57659  eV     1   --> A              
     e( 17 - 17) =     10.05370  eV     1   --> B              
     e( 18 - 18) =     10.45003  eV     1   --> A              
     e( 19 - 19) =     16.12758  eV     1   --> A              

 **************************************************************************

 **************************************************************************

                    xk=(   0.05397,  -0.00000,   0.60093  )

     Band symmetry, C_2  (2)    point group:

     e(  1 -  1) =    -13.57111  eV     1   --> A              
     e(  2 -  2) =    -13.57026  eV     1   --> B              
     e(  3 -  3) =    -13.48214  eV     1   --> A              
     e(  4 -  4) =    -13.48144  eV     1   --> B              
     e(  5 -  5) =    -13.45922  eV     1   --> B              
[...]

     Band symmetry, C_s (m)     point group:

     e(  1 -  1) =    -13.64284  eV     1   --> A''            
     e(  2 -  2) =    -13.62738  eV     1   --> A'             
     e(  3 -  3) =    -13.50898  eV     1   --> A'             
     e(  4 -  4) =    -13.50271  eV     1   --> A''            
     e(  5 -  5) =    -13.48522  eV     1   --> A'             
     e(  6 -  6) =    -13.35209  eV     1   --> A'             
     e(  7 -  7) =    -13.34091  eV     1   --> A''            
     e(  8 -  8) =    -13.33576  eV     1   --> A'             
     e(  9 -  9) =    -13.24137  eV     1   --> A'             
     e( 10 - 10) =    -13.22325  eV     1   --> A''            
     e( 11 - 11) =     -3.49473  eV     1   --> A'             
     e( 12 - 12) =      1.38747  eV     1   --> A'             
     e( 13 - 13) =      7.71530  eV     1   --> A'             
     e( 14 - 14) =      7.85472  eV     1   --> A''            
     e( 15 - 15) =      8.52673  eV     1   --> A'             
     e( 16 - 16) =     10.86874  eV     1   --> A'             
     e( 17 - 17) =     11.87194  eV     1   --> A'             
     e( 18 - 18) =     12.29780  eV     1   --> A''            
     e( 19 - 19) =     14.38209  eV     1   --> A'             

 **************************************************************************

 **************************************************************************

                    xk=(   0.09541,  -0.05508,   0.07345  )

     Band symmetry, C_s (m)     point group:

     e(  1 -  1) =    -13.64300  eV     1   --> A''            
     e(  2 -  2) =    -13.62993  eV     1   --> A'             
     e(  3 -  3) =    -13.50907  eV     1   --> A'             
     e(  4 -  4) =    -13.50387  eV     1   --> A''            
     e(  5 -  5) =    -13.48617  eV     1   --> A'             
     e(  6 -  6) =    -13.35115  eV     1   --> A'             
     e(  7 -  7) =    -13.33995  eV     1   --> A''            
     e(  8 -  8) =    -13.33569  eV     1   --> A'             
     e(  9 -  9) =    -13.23852  eV     1   --> A'             
     e( 10 - 10) =    -13.22318  eV     1   --> A''            
     e( 11 - 11) =     -3.51246  eV     1   --> A'             
     e( 12 - 12) =      1.42292  eV     1   --> A'             
     e( 13 - 13) =      7.75225  eV     1   --> A'             
     e( 14 - 14) =      7.88576  eV     1   --> A''            
     e( 15 - 15) =      8.45193  eV     1   --> A'             
     e( 16 - 16) =     11.00269  eV     1   --> A'             
     e( 17 - 17) =     11.86486  eV     1   --> A'             
     e( 18 - 18) =     12.27211  eV     1   --> A''            
     e( 19 - 19) =     14.44158  eV     1   --> A'             

 **************************************************************************

 **************************************************************************

                    xk=(   0.08673,  -0.05008,   0.06677  )

     Band symmetry, C_s (m)     point group:

     e(  1 -  1) =    -13.64315  eV     1   --> A''            
     e(  2 -  2) =    -13.63229  eV     1   --> A'             
     e(  3 -  3) =    -13.50919  eV     1   --> A'             
     e(  4 -  4) =    -13.50494  eV     1   --> A''            
     e(  5 -  5) =    -13.48702  eV     1   --> A'             
     e(  6 -  6) =    -13.35031  eV     1   --> A'             
     e(  7 -  7) =    -13.33906  eV     1   --> A''            
     e(  8 -  8) =    -13.33560  eV     1   --> A'             
     e(  9 -  9) =    -13.23587  eV     1   --> A'             
     e( 10 - 10) =    -13.22312  eV     1   --> A''            
     e( 11 - 11) =     -3.52868  eV     1   --> A'             
     e( 12 - 12) =      1.45622  eV     1   --> A'             
     e( 13 - 13) =      7.78646  eV     1   --> A'             
     e( 14 - 14) =      7.91481  eV     1   --> A''            
     e( 15 - 15) =      8.38158  eV     1   --> A'             
     e( 16 - 16) =     11.13064  eV     1   --> A'             
     e( 17 - 17) =     11.86134  eV     1   --> A'             
     e( 18 - 18) =     12.24829  eV     1   --> A''            
     e( 19 - 19) =     14.50320  eV     1   --> A'             

 **************************************************************************

 **************************************************************************

                    xk=(   0.07806,  -0.04507,   0.06009  )

     Band symmetry, C_s (m)     point group:

     e(  1 -  1) =    -13.64329  eV     1   --> A''            
     e(  2 -  2) =    -13.63444  eV     1   --> A'             
     e(  3 -  3) =    -13.50931  eV     1   --> A'             
     e(  4 -  4) =    -13.50592  eV     1   --> A''            
     e(  5 -  5) =    -13.48777  eV     1   --> A'             
     e(  6 -  6) =    -13.34956  eV     1   --> A'             
     e(  7 -  7) =    -13.33824  eV     1   --> A''            
     e(  8 -  8) =    -13.33549  eV     1   --> A'             
     e(  9 -  9) =    -13.23345  eV     1   --> A'             
     e( 10 - 10) =    -13.22307  eV     1   --> A''            
     e( 11 - 11) =     -3.54339  eV     1   --> A'             
     e( 12 - 12) =      1.48715  eV     1   --> A'             
     e( 13 - 13) =      7.81764  eV     1   --> A'             
     e( 14 - 14) =      7.94170  eV     1   --> A''            
     e( 15 - 15) =      8.31663  eV     1   --> A'             
     e( 16 - 16) =     11.24913  eV     1   --> A'             
     e( 17 - 17) =     11.86320  eV     1   --> A'             
     e( 18 - 18) =     12.22641  eV     1   --> A''            
     e( 19 - 19) =     14.56654  eV     1   --> A'             

 **************************************************************************

 **************************************************************************

                    xk=(   0.06939,  -0.04006,   0.05342  )

     Band symmetry, C_s (m)     point group:

     e(  1 -  1) =    -13.64341  eV     1   --> A''            
     e(  2 -  2) =    -13.63639  eV     1   --> A'             
     e(  3 -  3) =    -13.50944  eV     1   --> A'             
     e(  4 -  4) =    -13.50680  eV     1   --> A''            
     e(  5 -  5) =    -13.48844  eV     1   --> A'             
     e(  6 -  6) =    -13.34891  eV     1   --> A'             
     e(  7 -  7) =    -13.33751  eV     1   --> A''            
     e(  8 -  8) =    -13.33538  eV     1   --> A'             
     e(  9 -  9) =    -13.23127  eV     1   --> A'             
     e( 10 - 10) =    -13.22302  eV     1   --> A''            
     e( 11 - 11) =     -3.55658  eV     1   --> A'             
     e( 12 - 12) =      1.51550  eV     1   --> A'             
     e( 13 - 13) =      7.84541  eV     1   --> A'             
     e( 14 - 14) =      7.96626  eV     1   --> A''            
     e( 15 - 15) =      8.25787  eV     1   --> A'             
     e( 16 - 16) =     11.35399  eV     1   --> A'             
     e( 17 - 17) =     11.87300  eV     1   --> A'             
     e( 18 - 18) =     12.20656  eV     1   --> A''            
     e( 19 - 19) =     14.63112  eV     1   --> A'             

 **************************************************************************

 **************************************************************************

                    xk=(   0.06071,  -0.03505,   0.04674  )

     Band symmetry, C_s (m)     point group:

     e(  1 -  1) =    -13.64351  eV     1   --> A''            
     e(  2 -  2) =    -13.63812  eV     1   --> A'             
     e(  3 -  3) =    -13.50958  eV     1   --> A'             
     e(  4 -  4) =    -13.50758  eV     1   --> A''            
     e(  5 -  5) =    -13.48901  eV     1   --> A'             
     e(  6 -  6) =    -13.34835  eV     1   --> A'             
     e(  7 -  7) =    -13.33686  eV     1   --> A''            
     e(  8 -  8) =    -13.33526  eV     1   --> A'             
     e(  9 -  9) =    -13.22932  eV     1   --> A'             
     e( 10 - 10) =    -13.22298  eV     1   --> A''            
     e( 11 - 11) =     -3.56824  eV     1   --> A'             
     e( 12 - 12) =      1.54107  eV     1   --> A'             
     e( 13 - 13) =      7.86935  eV     1   --> A'             
     e( 14 - 14) =      7.98835  eV     1   --> A''            
     e( 15 - 15) =      8.20605  eV     1   --> A'             
     e( 16 - 16) =     11.44062  eV     1   --> A'             
     e( 17 - 17) =     11.89368  eV     1   --> A'             
     e( 18 - 18) =     12.18882  eV     1   --> A''            
     e( 19 - 19) =     14.69625  eV     1   --> A'             

 **************************************************************************

 **************************************************************************

                    xk=(   0.05204,  -0.03005,   0.04006  )

     Band symmetry, C_s (m)     point group:

     e(  1 -  1) =    -13.64361  eV     1   --> A''            
     e(  2 -  2) =    -13.63963  eV     1   --> A'             
     e(  3 -  3) =    -13.50971  eV     1   --> A'             
     e(  4 -  4) =    -13.50826  eV     1   --> A''            
     e(  5 -  5) =    -13.48949  eV     1   --> A'             
     e(  6 -  6) =    -13.34788  eV     1   --> A'             
     e(  7 -  7) =    -13.33629  eV     1   --> A''            
     e(  8 -  8) =    -13.33513  eV     1   --> A'             
     e(  9 -  9) =    -13.22762  eV     1   --> A'             
     e( 10 - 10) =    -13.22294  eV     1   --> A''            
     e( 11 - 11) =     -3.57836  eV     1   --> A'             
     e( 12 - 12) =      1.56366  eV     1   --> A'             
     e( 13 - 13) =      7.88896  eV     1   --> A'             
     e( 14 - 14) =      8.00782  eV     1   --> A''            
     e( 15 - 15) =      8.16193  eV     1   --> A'             
     e( 16 - 16) =     11.50560  eV     1   --> A'             
     e( 17 - 17) =     11.92688  eV     1   --> A'             
     e( 18 - 18) =     12.17327  eV     1   --> A''            
     e( 19 - 19) =     14.76105  eV     1   --> A'             

 **************************************************************************

 **************************************************************************

                    xk=(   0.04337,  -0.02504,   0.03339  )

     Band symmetry, C_s (m)     point group:

     e(  1 -  1) =    -13.64369  eV     1   --> A''            
     e(  2 -  2) =    -13.64092  eV     1   --> A'             
     e(  3 -  3) =    -13.50984  eV     1   --> A'             
     e(  4 -  4) =    -13.50884  eV     1   --> A''            
     e(  5 -  5) =    -13.48990  eV     1   --> A'             
     e(  6 -  6) =    -13.34750  eV     1   --> A'             
     e(  7 -  7) =    -13.33581  eV     1   --> A''            
     e(  8 -  8) =    -13.33502  eV     1   --> A'             
     e(  9 -  9) =    -13.22617  eV     1   --> A'             
     e( 10 - 10) =    -13.22291  eV     1   --> A''            
     e( 11 - 11) =     -3.58693  eV     1   --> A'             
     e( 12 - 12) =      1.58311  eV     1   --> A'             
     e( 13 - 13) =      7.90371  eV     1   --> A'             
     e( 14 - 14) =      8.02453  eV     1   --> A''            
     e( 15 - 15) =      8.12619  eV     1   --> A'             
     e( 16 - 16) =     11.54930  eV     1   --> A'             
     e( 17 - 17) =     11.97046  eV     1   --> A'             
     e( 18 - 18) =     12.15998  eV     1   --> A''            
     e( 19 - 19) =     14.82420  eV     1   --> A'             

 **************************************************************************

 **************************************************************************

                    xk=(   0.03469,  -0.02003,   0.02671  )

     Band symmetry, C_s (m)     point group:

     e(  1 -  1) =    -13.64375  eV     1   --> A''            
     e(  2 -  2) =    -13.64198  eV     1   --> A'             
     e(  3 -  3) =    -13.50995  eV     1   --> A'             
     e(  4 -  4) =    -13.50931  eV     1   --> A''            
     e(  5 -  5) =    -13.49022  eV     1   --> A'             
     e(  6 -  6) =    -13.34719  eV     1   --> A'             
     e(  7 -  7) =    -13.33541  eV     1   --> A''            
     e(  8 -  8) =    -13.33491  eV     1   --> A'             
     e(  9 -  9) =    -13.22498  eV     1   --> A'             
     e( 10 - 10) =    -13.22289  eV     1   --> A''            
     e( 11 - 11) =     -3.59395  eV     1   --> A'             
     e( 12 - 12) =      1.59925  eV     1   --> A'             
     e( 13 - 13) =      7.91327  eV     1   --> A'             
     e( 14 - 14) =      8.03837  eV     1   --> A''            
     e( 15 - 15) =      8.09931  eV     1   --> A'             
     e( 16 - 16) =     11.57610  eV     1   --> A'             
     e( 17 - 17) =     12.01821  eV     1   --> A'             
     e( 18 - 18) =     12.14901  eV     1   --> A''            
     e( 19 - 19) =     14.88336  eV     1   --> A'             

 **************************************************************************

 **************************************************************************

                    xk=(   0.02602,  -0.01502,   0.02003  )

     Band symmetry, C_s (m)     point group:

     e(  1 -  1) =    -13.64380  eV     1   --> A''            
     e(  2 -  2) =    -13.64280  eV     1   --> A'             
     e(  3 -  3) =    -13.51004  eV     1   --> A'             
     e(  4 -  4) =    -13.50968  eV     1   --> A''            
     e(  5 -  5) =    -13.49047  eV     1   --> A'             
     e(  6 -  6) =    -13.34695  eV     1   --> A'             
     e(  7 -  7) =    -13.33510  eV     1   --> A''            
     e(  8 -  8) =    -13.33482  eV     1   --> A'             
     e(  9 -  9) =    -13.22404  eV     1   --> A'             
     e( 10 - 10) =    -13.22287  eV     1   --> A''            
     e( 11 - 11) =     -3.59942  eV     1   --> A'             
     e( 12 - 12) =      1.61195  eV     1   --> A'             
     e( 13 - 13) =      7.91793  eV     1   --> A'             
     e( 14 - 14) =      8.04924  eV     1   --> A''            
     e( 15 - 15) =      8.08109  eV     1   --> A'             
     e( 16 - 16) =     11.59155  eV     1   --> A'             
     e( 17 - 17) =     12.06287  eV     1   --> A'             
     e( 18 - 18) =     12.14041  eV     1   --> A''            
     e( 19 - 19) =     14.91658  eV     1   --> A'             

 **************************************************************************

 **************************************************************************

                    xk=(   0.01735,  -0.01002,   0.01335  )

     Band symmetry, C_s (m)     point group:

     e(  1 -  1) =    -13.64384  eV     1   --> A''            
     e(  2 -  2) =    -13.64340  eV     1   --> A'             
     e(  3 -  3) =    -13.51011  eV     1   --> A'             
     e(  4 -  4) =    -13.50995  eV     1   --> A''            
     e(  5 -  5) =    -13.49064  eV     1   --> A'             
     e(  6 -  6) =    -13.34679  eV     1   --> A'             
     e(  7 -  7) =    -13.33488  eV     1   --> A''            
     e(  8 -  8) =    -13.33476  eV     1   --> A'             
     e(  9 -  9) =    -13.22338  eV     1   --> A'             
     e( 10 - 10) =    -13.22285  eV     1   --> A''            
     e( 11 - 11) =     -3.60333  eV     1   --> A'             
     e( 12 - 12) =      1.62111  eV     1   --> A'             
     e( 13 - 13) =      7.91900  eV     1   --> A'             
     e( 14 - 14) =      8.05707  eV     1   --> A''            
     e( 15 - 15) =      8.07028  eV     1   --> A'             
     e( 16 - 16) =     11.60000  eV     1   --> A'             
     e( 17 - 17) =     12.09858  eV     1   --> A'             
     e( 18 - 18) =     12.13424  eV     1   --> A''            
     e( 19 - 19) =     14.94519  eV     1   --> A'             

 **************************************************************************

 **************************************************************************

                    xk=(   0.00867,  -0.00501,   0.00668  )

     Band symmetry, C_s (m)     point group:

     e(  1 -  1) =    -13.64386  eV     1   --> A''            
     e(  2 -  2) =    -13.64375  eV     1   --> A'             
     e(  3 -  4) =    -13.51015  eV     2   --> A'             
     e(  3 -  4) =    -13.51015  eV     2   --> A''            
     e(  5 -  5) =    -13.49074  eV     1   --> A'             
     e(  6 -  6) =    -13.34669  eV     1   --> A'             
     e(  7 -  8) =    -13.33475  eV     2   --> A'             
     e(  7 -  8) =    -13.33475  eV     2   --> A''            
     e(  9 -  9) =    -13.22297  eV     1   --> A'             
     e( 10 - 10) =    -13.22284  eV     1   --> A''            
     e( 11 - 11) =     -3.60567  eV     1   --> A'             
     e( 12 - 12) =      1.62663  eV     1   --> A'             
     e( 13 - 13) =      7.91849  eV     1   --> A'             
     e( 14 - 14) =      8.06179  eV     1   --> A''            
     e( 15 - 15) =      8.06493  eV     1   --> A'             
     e( 16 - 16) =     11.60415  eV     1   --> A'             
     e( 17 - 17) =     12.12143  eV     1   --> A'             
     e( 18 - 18) =     12.13053  eV     1   --> A''            
     e( 19 - 19) =     14.97357  eV     1   --> A'             

 **************************************************************************

 **************************************************************************

                    xk=(   0.00000,   0.00000,   0.00000  )

     point group D_3d (-3m) 
     there are  6 classes
     the character table:

       E     2C3   3C2'  i     2S6   3s_d 
A_1g   1.00  1.00  1.00  1.00  1.00  1.00
A_2g   1.00  1.00 -1.00  1.00  1.00 -1.00
E_g    2.00 -1.00  0.00  2.00 -1.00  0.00
A_1u   1.00  1.00  1.00 -1.00 -1.00 -1.00
A_2u   1.00  1.00 -1.00 -1.00 -1.00  1.00
E_u    2.00 -1.00  0.00 -2.00  1.00  0.00

     the symmetry operations in each class and the name of the first element:

     E        1
                                                                 
     2C3      3    4
                                                                 
     3C2'     2    5    6
                                                                 
     i        7
                                                                 
     2S6      9   10
                                                                 
     3s_d     8   11   12
                                                                 

     Band symmetry, D_3d (-3m)  point group:

     e(  1 -  2) =    -13.64387  eV     2   --> E_g  L_3       
     e(  3 -  4) =    -13.51016  eV     2   --> E_u  L_3'      
     e(  5 -  5) =    -13.49078  eV     1   --> A_2u L_2'      
     e(  6 -  6) =    -13.34666  eV     1   --> A_1g L_1       
     e(  7 -  8) =    -13.33470  eV     2   --> E_g  L_3       
     e(  9 - 10) =    -13.22284  eV     2   --> E_u  L_3'      
     e( 11 - 11) =     -3.60645  eV     1   --> A_1g L_1       
     e( 12 - 12) =      1.62848  eV     1   --> A_2u L_2'      
     e( 13 - 13) =      7.91810  eV     1   --> A_1g L_1       
     e( 14 - 15) =      8.06337  eV     2   --> E_g  L_3       
     e( 16 - 16) =     11.60539  eV     1   --> A_2u L_2'      
     e( 17 - 18) =     12.12928  eV     2   --> E_u  L_3'      
     e( 19 - 19) =     14.98681  eV     1   --> A_2u L_2'      

 **************************************************************************
 
     BANDS        :    32.67s CPU        34.33s WALL

 
   This run was terminated on:  15: 3:17   8Apr2020            

=------------------------------------------------------------------------------=
   JOB DONE.
=------------------------------------------------------------------------------=
