mpijob CMD    : mpirun -f /tmp/mpiexec.params.k050801.99809
mpijob PARAMS : -d /home/k0508/k050801/qeirreps/ver_5/qeirreps/reference/Bi_nonsoc
        r1i6n18 24 omplace -nt 1 "/home/k0508/k050801/qe-6.6/bin/bands.x"

SGI MPT Placement option
--------------------------
omplace -nt 1

Node   MPI
------------
r1i6n18 24


     Program BANDS v.6.6 starts on 29Nov2020 at 17:50:48 

     This program is part of the open-source Quantum ESPRESSO suite
     for quantum simulation of materials; please cite
         "P. Giannozzi et al., J. Phys.:Condens. Matter 21 395502 (2009);
         "P. Giannozzi et al., J. Phys.:Condens. Matter 29 465901 (2017);
          URL http://www.quantum-espresso.org", 
     in publications or presentations arising from this work. More details at
     http://www.quantum-espresso.org/quote

     Parallel version (MPI), running on    24 processors

     MPI processes distributed on     1 nodes
     R & G space division:  proc/nbgrp/npool/nimage =      24
     Fft bands division:     nmany     =       1

     Reading xml data from directory:

     /work/k0508/k050801/Bi_ns/band/Bi.save/

     IMPORTANT: XC functional enforced from input :
     Exchange-correlation= PBE
                           (   1   4   3   4   0   0   0)
     Any further DFT definition will be discarded
     Please, verify this is what you really want

 
     Parallelization info
     --------------------
     sticks:   dense  smooth     PW     G-vecs:    dense   smooth      PW
     Min          91      91     25                 2787     2787     410
     Max          92      92     26                 2793     2793     413
     Sum        2197    2197    617                66925    66925    9883
 
     Reading collected, re-writing distributed wavefunctions
     high-symmetry point:  0.0000 0.0000 0.0000   x coordinate   0.0000
     high-symmetry point:  0.0000 0.0000 0.6009   x coordinate   0.6009
     high-symmetry point:  0.5397 0.0000 0.6009   x coordinate   1.1406
     high-symmetry point:  0.7710-0.1335 0.2003   x coordinate   1.1406
     high-symmetry point:  0.5204 0.3005 0.2003   x coordinate   1.6417
     high-symmetry point:  0.0000 0.0000 0.0000   x coordinate   2.2751
     high-symmetry point:  0.7710 0.0000 0.0000   x coordinate   3.0461
     high-symmetry point:  0.6553-0.0668 0.4006   x coordinate   3.0461
     high-symmetry point:  0.5204-0.3005 0.4006   x coordinate   3.3159
     high-symmetry point:  0.0000 0.0000 0.0000   x coordinate   4.0382

     Plottable bands (eV) written to file Bi.band.gnu
     Bands written to file Bi.band

 **************************************************************************

                    xk=(   0.00000,   0.00000,   0.00000  )

     point group D_3d (-3m) 
     there are  6 classes
     the character table:

       E     2C3   3C2'  i     2S6   3s_d 
A_1g   1.00  1.00  1.00  1.00  1.00  1.00
A_2g   1.00  1.00 -1.00  1.00  1.00 -1.00
E_g    2.00 -1.00  0.00  2.00 -1.00  0.00
A_1u   1.00  1.00  1.00 -1.00 -1.00 -1.00
A_2u   1.00  1.00 -1.00 -1.00 -1.00  1.00
E_u    2.00 -1.00  0.00 -2.00  1.00  0.00

     the symmetry operations in each class and the name of the first element:

     E        1
                                                                 
     2C3      3    4
                                                                 
     3C2'     2    5    6
                                                                 
     i        7
                                                                 
     2S6      9   10
                                                                 
     3s_d     8   11   12
                                                                 

     Band symmetry, D_3d (-3m)  point group:

     e(  1 -  2) =    -13.64395  eV     2   --> E_g  L_3       
     e(  3 -  4) =    -13.51025  eV     2   --> E_u  L_3'      
     e(  5 -  5) =    -13.49084  eV     1   --> A_2u L_2'      
     e(  6 -  6) =    -13.34672  eV     1   --> A_1g L_1       
     e(  7 -  8) =    -13.33478  eV     2   --> E_g  L_3       
     e(  9 - 10) =    -13.22291  eV     2   --> E_u  L_3'      
     e( 11 - 11) =     -3.60652  eV     1   --> A_1g L_1       
     e( 12 - 12) =      1.62846  eV     1   --> A_2u L_2'      
     e( 13 - 13) =      7.91812  eV     1   --> A_1g L_1       
     e( 14 - 15) =      8.06331  eV     2   --> E_g  L_3       
     e( 16 - 16) =     11.60529  eV     1   --> A_2u L_2'      
     e( 17 - 18) =     12.12923  eV     2   --> E_u  L_3'      
     e( 19 - 19) =     14.98691  eV     1   --> A_2u L_2'      

 **************************************************************************

 **************************************************************************

                    xk=(   0.00000,   0.00000,   0.01002  )

     point group C_3v (3m)  
     there are  3 classes
     the character table:

       E     2C3   3s_v 
A_1    1.00  1.00  1.00
A_2    1.00  1.00 -1.00
E      2.00 -1.00  0.00

     the symmetry operations in each class and the name of the first element:

     E        1
                                                                 
     2C3      2    3
                                                                 
     3s_v     4    5    6
                                                                 

     Band symmetry, C_3v (3m)   point group:

     e(  1 -  2) =    -13.64391  eV     2   --> E    L_3       
     e(  3 -  4) =    -13.51023  eV     2   --> E    L_3       
     e(  5 -  5) =    -13.49083  eV     1   --> A_1  L_1       
     e(  6 -  6) =    -13.34674  eV     1   --> A_1  L_1       
     e(  7 -  8) =    -13.33480  eV     2   --> E    L_3       
     e(  9 - 10) =    -13.22296  eV     2   --> E    L_3       
     e( 11 - 11) =     -3.60603  eV     1   --> A_1  L_1       
     e( 12 - 12) =      1.62713  eV     1   --> A_1  L_1       
     e( 13 - 13) =      7.91850  eV     1   --> A_1  L_1       
     e( 14 - 15) =      8.06350  eV     2   --> E    L_3       
     e( 16 - 16) =     11.60364  eV     1   --> A_1  L_1       
     e( 17 - 18) =     12.12737  eV     2   --> E    L_3       
     e( 19 - 19) =     14.96189  eV     1   --> A_1  L_1       

 **************************************************************************

 **************************************************************************

                    xk=(   0.00000,   0.00000,   0.02003  )

     Band symmetry, C_3v (3m)   point group:

     e(  1 -  2) =    -13.64379  eV     2   --> E    L_3       
     e(  3 -  4) =    -13.51018  eV     2   --> E    L_3       
     e(  5 -  5) =    -13.49077  eV     1   --> A_1  L_1       
     e(  6 -  6) =    -13.34678  eV     1   --> A_1  L_1       
     e(  7 -  8) =    -13.33484  eV     2   --> E    L_3       
     e(  9 - 10) =    -13.22309  eV     2   --> E    L_3       
     e( 11 - 11) =     -3.60455  eV     1   --> A_1  L_1       
     e( 12 - 12) =      1.62313  eV     1   --> A_1  L_1       
     e( 13 - 13) =      7.91962  eV     1   --> A_1  L_1       
     e( 14 - 15) =      8.06409  eV     2   --> E    L_3       
     e( 16 - 16) =     11.59871  eV     1   --> A_1  L_1       
     e( 17 - 18) =     12.12179  eV     2   --> E    L_3       
     e( 19 - 19) =     14.91206  eV     1   --> A_1  L_1       

 **************************************************************************

 **************************************************************************

                    xk=(   0.00000,   0.00000,   0.03005  )

     Band symmetry, C_3v (3m)   point group:

     e(  1 -  2) =    -13.64359  eV     2   --> E    L_3       
     e(  3 -  4) =    -13.51009  eV     2   --> E    L_3       
     e(  5 -  5) =    -13.49069  eV     1   --> A_1  L_1       
     e(  6 -  6) =    -13.34686  eV     1   --> A_1  L_1       
     e(  7 -  8) =    -13.33491  eV     2   --> E    L_3       
     e(  9 - 10) =    -13.22332  eV     2   --> E    L_3       
     e( 11 - 11) =     -3.60210  eV     1   --> A_1  L_1       
     e( 12 - 12) =      1.61649  eV     1   --> A_1  L_1       
     e( 13 - 13) =      7.92147  eV     1   --> A_1  L_1       
     e( 14 - 15) =      8.06506  eV     2   --> E    L_3       
     e( 16 - 16) =     11.59055  eV     1   --> A_1  L_1       
     e( 17 - 18) =     12.11255  eV     2   --> E    L_3       
     e( 19 - 19) =     14.85691  eV     1   --> A_1  L_1       

 **************************************************************************

 **************************************************************************

                    xk=(   0.00000,   0.00000,   0.04006  )

     Band symmetry, C_3v (3m)   point group:

     e(  1 -  2) =    -13.64330  eV     2   --> E    L_3       
     e(  3 -  4) =    -13.50997  eV     2   --> E    L_3       
     e(  5 -  5) =    -13.49057  eV     1   --> A_1  L_1       
     e(  6 -  6) =    -13.34696  eV     1   --> A_1  L_1       
     e(  7 -  8) =    -13.33500  eV     2   --> E    L_3       
     e(  9 - 10) =    -13.22363  eV     2   --> E    L_3       
     e( 11 - 11) =     -3.59866  eV     1   --> A_1  L_1       
     e( 12 - 12) =      1.60721  eV     1   --> A_1  L_1       
     e( 13 - 13) =      7.92405  eV     1   --> A_1  L_1       
     e( 14 - 15) =      8.06642  eV     2   --> E    L_3       
     e( 16 - 16) =     11.57923  eV     1   --> A_1  L_1       
     e( 17 - 18) =     12.09970  eV     2   --> E    L_3       
     e( 19 - 19) =     14.80147  eV     1   --> A_1  L_1       

 **************************************************************************

 **************************************************************************

                    xk=(   0.00000,   0.00000,   0.05008  )

     Band symmetry, C_3v (3m)   point group:

     e(  1 -  2) =    -13.64294  eV     2   --> E    L_3       
     e(  3 -  4) =    -13.50981  eV     2   --> E    L_3       
     e(  5 -  5) =    -13.49042  eV     1   --> A_1  L_1       
     e(  6 -  6) =    -13.34710  eV     1   --> A_1  L_1       
     e(  7 -  8) =    -13.33513  eV     2   --> E    L_3       
     e(  9 - 10) =    -13.22404  eV     2   --> E    L_3       
     e( 11 - 11) =     -3.59424  eV     1   --> A_1  L_1       
     e( 12 - 12) =      1.59534  eV     1   --> A_1  L_1       
     e( 13 - 13) =      7.92732  eV     1   --> A_1  L_1       
     e( 14 - 15) =      8.06818  eV     2   --> E    L_3       
     e( 16 - 16) =     11.56486  eV     1   --> A_1  L_1       
     e( 17 - 18) =     12.08333  eV     2   --> E    L_3       
     e( 19 - 19) =     14.74737  eV     1   --> A_1  L_1       

 **************************************************************************

 **************************************************************************

                    xk=(   0.00000,   0.00000,   0.06009  )

     Band symmetry, C_3v (3m)   point group:

     e(  1 -  2) =    -13.64250  eV     2   --> E    L_3       
     e(  3 -  4) =    -13.50962  eV     2   --> E    L_3       
     e(  5 -  5) =    -13.49023  eV     1   --> A_1  L_1       
     e(  6 -  6) =    -13.34726  eV     1   --> A_1  L_1       
     e(  7 -  8) =    -13.33528  eV     2   --> E    L_3       
     e(  9 - 10) =    -13.22453  eV     2   --> E    L_3       
     e( 11 - 11) =     -3.58885  eV     1   --> A_1  L_1       
     e( 12 - 12) =      1.58090  eV     1   --> A_1  L_1       
     e( 13 - 13) =      7.93127  eV     1   --> A_1  L_1       
     e( 14 - 15) =      8.07033  eV     2   --> E    L_3       
     e( 16 - 16) =     11.54754  eV     1   --> A_1  L_1       
     e( 17 - 18) =     12.06356  eV     2   --> E    L_3       
     e( 19 - 19) =     14.69535  eV     1   --> A_1  L_1       

 **************************************************************************

 **************************************************************************

                    xk=(   0.00000,   0.00000,   0.07011  )

     Band symmetry, C_3v (3m)   point group:

     e(  1 -  2) =    -13.64197  eV     2   --> E    L_3       
     e(  3 -  4) =    -13.50940  eV     2   --> E    L_3       
     e(  5 -  5) =    -13.49002  eV     1   --> A_1  L_1       
     e(  6 -  6) =    -13.34746  eV     1   --> A_1  L_1       
     e(  7 -  8) =    -13.33546  eV     2   --> E    L_3       
     e(  9 - 10) =    -13.22510  eV     2   --> E    L_3       
     e( 11 - 11) =     -3.58249  eV     1   --> A_1  L_1       
     e( 12 - 12) =      1.56394  eV     1   --> A_1  L_1       
     e( 13 - 13) =      7.93585  eV     1   --> A_1  L_1       
     e( 14 - 15) =      8.07287  eV     2   --> E    L_3       
     e( 16 - 16) =     11.52743  eV     1   --> A_1  L_1       
     e( 17 - 18) =     12.04052  eV     2   --> E    L_3       
     e( 19 - 19) =     14.64587  eV     1   --> A_1  L_1       

 **************************************************************************

 **************************************************************************

                    xk=(   0.00000,   0.00000,   0.08012  )

     Band symmetry, C_3v (3m)   point group:

     e(  1 -  2) =    -13.64137  eV     2   --> E    L_3       
     e(  3 -  4) =    -13.50914  eV     2   --> E    L_3       
     e(  5 -  5) =    -13.48976  eV     1   --> A_1  L_1       
     e(  6 -  6) =    -13.34768  eV     1   --> A_1  L_1       
     e(  7 -  8) =    -13.33567  eV     2   --> E    L_3       
     e(  9 - 10) =    -13.22577  eV     2   --> E    L_3       
     e( 11 - 11) =     -3.57516  eV     1   --> A_1  L_1       
     e( 12 - 12) =      1.54452  eV     1   --> A_1  L_1       
     e( 13 - 13) =      7.94103  eV     1   --> A_1  L_1       
     e( 14 - 15) =      8.07581  eV     2   --> E    L_3       
     e( 16 - 16) =     11.50469  eV     1   --> A_1  L_1       
     e( 17 - 18) =     12.01435  eV     2   --> E    L_3       
     e( 19 - 19) =     14.59922  eV     1   --> A_1  L_1       

 **************************************************************************

 **************************************************************************

                    xk=(   0.00000,   0.00000,   0.09014  )

     Band symmetry, C_3v (3m)   point group:

     e(  1 -  2) =    -13.64070  eV     2   --> E    L_3       
     e(  3 -  4) =    -13.50885  eV     2   --> E    L_3       
     e(  5 -  5) =    -13.48948  eV     1   --> A_1  L_1       
     e(  6 -  6) =    -13.34794  eV     1   --> A_1  L_1       
     e(  7 -  8) =    -13.33590  eV     2   --> E    L_3       
     e(  9 - 10) =    -13.22652  eV     2   --> E    L_3       
     e( 11 - 11) =     -3.56686  eV     1   --> A_1  L_1       
     e( 12 - 12) =      1.52268  eV     1   --> A_1  L_1       
     e( 13 - 13) =      7.94676  eV     1   --> A_1  L_1       
     e( 14 - 15) =      8.07916  eV     2   --> E    L_3       
     e( 16 - 16) =     11.47948  eV     1   --> A_1  L_1       
     e( 17 - 18) =     11.98522  eV     2   --> E    L_3       
     e( 19 - 19) =     14.55564  eV     1   --> A_1  L_1       

 **************************************************************************

 **************************************************************************

                    xk=(   0.00000,   0.00000,   0.10016  )

     Band symmetry, C_3v (3m)   point group:

     e(  1 -  2) =    -13.63994  eV     2   --> E    L_3       
     e(  3 -  4) =    -13.50853  eV     2   --> E    L_3       
     e(  5 -  5) =    -13.48916  eV     1   --> A_1  L_1       
     e(  6 -  6) =    -13.34822  eV     1   --> A_1  L_1       
     e(  7 -  8) =    -13.33615  eV     2   --> E    L_3       
     e(  9 - 10) =    -13.22736  eV     2   --> E    L_3       
     e( 11 - 11) =     -3.55760  eV     1   --> A_1  L_1       
     e( 12 - 12) =      1.49849  eV     1   --> A_1  L_1       
     e( 13 - 13) =      7.95301  eV     1   --> A_1  L_1       
     e( 14 - 15) =      8.08290  eV     2   --> E    L_3       
     e( 16 - 16) =     11.45198  eV     1   --> A_1  L_1       
     e( 17 - 18) =     11.95329  eV     2   --> E    L_3       
     e( 19 - 19) =     14.51532  eV     1   --> A_1  L_1       

 **************************************************************************

 **************************************************************************

                    xk=(   0.00000,   0.00000,   0.11017  )

     Band symmetry, C_3v (3m)   point group:

     e(  1 -  2) =    -13.63911  eV     2   --> E    L_3       
     e(  3 -  4) =    -13.50818  eV     2   --> E    L_3       
     e(  5 -  5) =    -13.48882  eV     1   --> A_1  L_1       
     e(  6 -  6) =    -13.34853  eV     1   --> A_1  L_1       
     e(  7 -  8) =    -13.33644  eV     2   --> E    L_3       
     e(  9 - 10) =    -13.22827  eV     2   --> E    L_3       
     e( 11 - 11) =     -3.54739  eV     1   --> A_1  L_1       
     e( 12 - 12) =      1.47203  eV     1   --> A_1  L_1       
     e( 13 - 13) =      7.95973  eV     1   --> A_1  L_1       
     e( 14 - 15) =      8.08705  eV     2   --> E    L_3       
     e( 16 - 16) =     11.42236  eV     1   --> A_1  L_1       
     e( 17 - 18) =     11.91875  eV     2   --> E    L_3       
     e( 19 - 19) =     14.47841  eV     1   --> A_1  L_1       

 **************************************************************************

 **************************************************************************

                    xk=(   0.00000,   0.00000,   0.12019  )

     Band symmetry, C_3v (3m)   point group:

     e(  1 -  2) =    -13.63821  eV     2   --> E    L_3       
     e(  3 -  4) =    -13.50779  eV     2   --> E    L_3       
     e(  5 -  5) =    -13.48844  eV     1   --> A_1  L_1       
     e(  6 -  6) =    -13.34887  eV     1   --> A_1  L_1       
     e(  7 -  8) =    -13.33674  eV     2   --> E    L_3       
     e(  9 - 10) =    -13.22927  eV     2   --> E    L_3       
     e( 11 - 11) =     -3.53624  eV     1   --> A_1  L_1       
     e( 12 - 12) =      1.44337  eV     1   --> A_1  L_1       
     e( 13 - 13) =      7.96685  eV     1   --> A_1  L_1       
     e( 14 - 15) =      8.09160  eV     2   --> E    L_3       
     e( 16 - 16) =     11.39082  eV     1   --> A_1  L_1       
     e( 17 - 18) =     11.88179  eV     2   --> E    L_3       
     e( 19 - 19) =     14.44504  eV     1   --> A_1  L_1       

 **************************************************************************

 **************************************************************************

                    xk=(   0.00000,   0.00000,   0.13020  )

     Band symmetry, C_3v (3m)   point group:

     e(  1 -  2) =    -13.63723  eV     2   --> E    L_3       
     e(  3 -  4) =    -13.50738  eV     2   --> E    L_3       
     e(  5 -  5) =    -13.48803  eV     1   --> A_1  L_1       
     e(  6 -  6) =    -13.34923  eV     1   --> A_1  L_1       
     e(  7 -  8) =    -13.33708  eV     2   --> E    L_3       
     e(  9 - 10) =    -13.23035  eV     2   --> E    L_3       
     e( 11 - 11) =     -3.52414  eV     1   --> A_1  L_1       
     e( 12 - 12) =      1.41258  eV     1   --> A_1  L_1       
     e( 13 - 13) =      7.97434  eV     1   --> A_1  L_1       
     e( 14 - 15) =      8.09657  eV     2   --> E    L_3       
     e( 16 - 16) =     11.35753  eV     1   --> A_1  L_1       
     e( 17 - 18) =     11.84257  eV     2   --> E    L_3       
     e( 19 - 19) =     14.41532  eV     1   --> A_1  L_1       

 **************************************************************************

 **************************************************************************

                    xk=(   0.00000,   0.00000,   0.14022  )

     Band symmetry, C_3v (3m)   point group:

     e(  1 -  2) =    -13.63619  eV     2   --> E    L_3       
     e(  3 -  4) =    -13.50694  eV     2   --> E    L_3       
     e(  5 -  5) =    -13.48759  eV     1   --> A_1  L_1       
     e(  6 -  6) =    -13.34963  eV     1   --> A_1  L_1       
     e(  7 -  8) =    -13.33743  eV     2   --> E    L_3       
     e(  9 - 10) =    -13.23151  eV     2   --> E    L_3       
     e( 11 - 11) =     -3.51111  eV     1   --> A_1  L_1       
     e( 12 - 12) =      1.37975  eV     1   --> A_1  L_1       
     e( 13 - 13) =      7.98214  eV     1   --> A_1  L_1       
     e( 14 - 15) =      8.10195  eV     2   --> E    L_3       
     e( 16 - 16) =     11.32266  eV     1   --> A_1  L_1       
     e( 17 - 18) =     11.80131  eV     2   --> E    L_3       
     e( 19 - 19) =     14.38932  eV     1   --> A_1  L_1       

 **************************************************************************

 **************************************************************************

                    xk=(   0.00000,   0.00000,   0.15023  )

     Band symmetry, C_3v (3m)   point group:

     e(  1 -  2) =    -13.63507  eV     2   --> E    L_3       
     e(  3 -  4) =    -13.50646  eV     2   --> E    L_3       
     e(  5 -  5) =    -13.48712  eV     1   --> A_1  L_1       
     e(  6 -  6) =    -13.35005  eV     1   --> A_1  L_1       
     e(  7 -  8) =    -13.33781  eV     2   --> E    L_3       
     e(  9 - 10) =    -13.23274  eV     2   --> E    L_3       
     e( 11 - 11) =     -3.49716  eV     1   --> A_1  L_1       
     e( 12 - 12) =      1.34496  eV     1   --> A_1  L_1       
     e( 13 - 13) =      7.99020  eV     1   --> A_1  L_1       
     e( 14 - 15) =      8.10775  eV     2   --> E    L_3       
     e( 16 - 16) =     11.28639  eV     1   --> A_1  L_1       
     e( 17 - 18) =     11.75817  eV     2   --> E    L_3       
     e( 19 - 19) =     14.36713  eV     1   --> A_1  L_1       

 **************************************************************************

 **************************************************************************

                    xk=(   0.00000,   0.00000,   0.16025  )

     Band symmetry, C_3v (3m)   point group:

     e(  1 -  2) =    -13.63389  eV     2   --> E    L_3       
     e(  3 -  4) =    -13.50597  eV     2   --> E    L_3       
     e(  5 -  5) =    -13.48662  eV     1   --> A_1  L_1       
     e(  6 -  6) =    -13.35049  eV     1   --> A_1  L_1       
     e(  7 -  8) =    -13.33821  eV     2   --> E    L_3       
     e(  9 - 10) =    -13.23405  eV     2   --> E    L_3       
     e( 11 - 11) =     -3.48230  eV     1   --> A_1  L_1       
     e( 12 - 12) =      1.30831  eV     1   --> A_1  L_1       
     e( 13 - 13) =      7.99847  eV     1   --> A_1  L_1       
     e( 14 - 15) =      8.11396  eV     2   --> E    L_3       
     e( 16 - 16) =     11.24890  eV     1   --> A_1  L_1       
     e( 17 - 18) =     11.71334  eV     2   --> E    L_3       
     e( 19 - 19) =     14.34880  eV     1   --> A_1  L_1       

 **************************************************************************

 **************************************************************************

                    xk=(   0.00000,   0.00000,   0.17026  )

     Band symmetry, C_3v (3m)   point group:

     e(  1 -  2) =    -13.63264  eV     2   --> E    L_3       
     e(  3 -  4) =    -13.50544  eV     2   --> E    L_3       
     e(  5 -  5) =    -13.48610  eV     1   --> A_1  L_1       
     e(  6 -  6) =    -13.35097  eV     1   --> A_1  L_1       
     e(  7 -  8) =    -13.33863  eV     2   --> E    L_3       
     e(  9 - 10) =    -13.23543  eV     2   --> E    L_3       
     e( 11 - 11) =     -3.46654  eV     1   --> A_1  L_1       
     e( 12 - 12) =      1.26989  eV     1   --> A_1  L_1       
     e( 13 - 13) =      8.00689  eV     1   --> A_1  L_1       
     e( 14 - 15) =      8.12060  eV     2   --> E    L_3       
     e( 16 - 16) =     11.21033  eV     1   --> A_1  L_1       
     e( 17 - 18) =     11.66699  eV     2   --> E    L_3       
     e( 19 - 19) =     14.33436  eV     1   --> A_1  L_1       

 **************************************************************************

 **************************************************************************

                    xk=(   0.00000,   0.00000,   0.18028  )

     Band symmetry, C_3v (3m)   point group:

     e(  1 -  2) =    -13.63133  eV     2   --> E    L_3       
     e(  3 -  4) =    -13.50489  eV     2   --> E    L_3       
     e(  5 -  5) =    -13.48554  eV     1   --> A_1  L_1       
     e(  6 -  6) =    -13.35146  eV     1   --> A_1  L_1       
     e(  7 -  8) =    -13.33907  eV     2   --> E    L_3       
     e(  9 - 10) =    -13.23688  eV     2   --> E    L_3       
     e( 11 - 11) =     -3.44989  eV     1   --> A_1  L_1       
     e( 12 - 12) =      1.22979  eV     1   --> A_1  L_1       
     e( 13 - 13) =      8.01542  eV     1   --> A_1  L_1       
     e( 14 - 15) =      8.12767  eV     2   --> E    L_3       
     e( 16 - 16) =     11.17084  eV     1   --> A_1  L_1       
     e( 17 - 18) =     11.61931  eV     2   --> E    L_3       
     e( 19 - 19) =     14.32386  eV     1   --> A_1  L_1       

 **************************************************************************

 **************************************************************************

                    xk=(   0.00000,   0.00000,   0.19030  )

     Band symmetry, C_3v (3m)   point group:

     e(  1 -  2) =    -13.62995  eV     2   --> E    L_3       
     e(  3 -  4) =    -13.50432  eV     2   --> E    L_3       
     e(  5 -  5) =    -13.48496  eV     1   --> A_1  L_1       
     e(  6 -  6) =    -13.35198  eV     1   --> A_1  L_1       
     e(  7 -  8) =    -13.33953  eV     2   --> E    L_3       
     e(  9 - 10) =    -13.23840  eV     2   --> E    L_3       
     e( 11 - 11) =     -3.43236  eV     1   --> A_1  L_1       
     e( 12 - 12) =      1.18811  eV     1   --> A_1  L_1       
     e( 13 - 13) =      8.02401  eV     1   --> A_1  L_1       
     e( 14 - 15) =      8.13516  eV     2   --> E    L_3       
     e( 16 - 16) =     11.13058  eV     1   --> A_1  L_1       
     e( 17 - 18) =     11.57044  eV     2   --> E    L_3       
     e( 19 - 19) =     14.31731  eV     1   --> A_1  L_1       

 **************************************************************************

 **************************************************************************

                    xk=(   0.00000,   0.00000,   0.20031  )

     Band symmetry, C_3v (3m)   point group:

     e(  1 -  2) =    -13.62852  eV     2   --> E    L_3       
     e(  3 -  4) =    -13.50372  eV     2   --> E    L_3       
     e(  5 -  5) =    -13.48436  eV     1   --> A_1  L_1       
     e(  6 -  6) =    -13.35253  eV     1   --> A_1  L_1       
     e(  7 -  8) =    -13.34001  eV     2   --> E    L_3       
     e(  9 - 10) =    -13.23998  eV     2   --> E    L_3       
     e( 11 - 11) =     -3.41396  eV     1   --> A_1  L_1       
     e( 12 - 12) =      1.14495  eV     1   --> A_1  L_1       
     e( 13 - 13) =      8.03262  eV     1   --> A_1  L_1       
     e( 14 - 15) =      8.14307  eV     2   --> E    L_3       
     e( 16 - 16) =     11.08970  eV     1   --> A_1  L_1       
     e( 17 - 18) =     11.52056  eV     2   --> E    L_3       
     e( 19 - 19) =     14.31471  eV     1   --> A_1  L_1       

 **************************************************************************

 **************************************************************************

                    xk=(   0.00000,   0.00000,   0.21033  )

     Band symmetry, C_3v (3m)   point group:

     e(  1 -  2) =    -13.62703  eV     2   --> E    L_3       
     e(  3 -  4) =    -13.50310  eV     2   --> E    L_3       
     e(  5 -  5) =    -13.48373  eV     1   --> A_1  L_1       
     e(  6 -  6) =    -13.35309  eV     1   --> A_1  L_1       
     e(  7 -  8) =    -13.34050  eV     2   --> E    L_3       
     e(  9 - 10) =    -13.24162  eV     2   --> E    L_3       
     e( 11 - 11) =     -3.39472  eV     1   --> A_1  L_1       
     e( 12 - 12) =      1.10040  eV     1   --> A_1  L_1       
     e( 13 - 13) =      8.04121  eV     1   --> A_1  L_1       
     e( 14 - 15) =      8.15142  eV     2   --> E    L_3       
     e( 16 - 16) =     11.04832  eV     1   --> A_1  L_1       
     e( 17 - 18) =     11.46981  eV     2   --> E    L_3       
     e( 19 - 19) =     14.31606  eV     1   --> A_1  L_1       

 **************************************************************************

 **************************************************************************

                    xk=(   0.00000,   0.00000,   0.22034  )

     Band symmetry, C_3v (3m)   point group:

     e(  1 -  2) =    -13.62549  eV     2   --> E    L_3       
     e(  3 -  4) =    -13.50246  eV     2   --> E    L_3       
     e(  5 -  5) =    -13.48308  eV     1   --> A_1  L_1       
     e(  6 -  6) =    -13.35368  eV     1   --> A_1  L_1       
     e(  7 -  8) =    -13.34101  eV     2   --> E    L_3       
     e(  9 - 10) =    -13.24332  eV     2   --> E    L_3       
     e( 11 - 11) =     -3.37465  eV     1   --> A_1  L_1       
     e( 12 - 12) =      1.05457  eV     1   --> A_1  L_1       
     e( 13 - 13) =      8.04975  eV     1   --> A_1  L_1       
     e( 14 - 15) =      8.16020  eV     2   --> E    L_3       
     e( 16 - 16) =     11.00658  eV     1   --> A_1  L_1       
     e( 17 - 18) =     11.41833  eV     2   --> E    L_3       
     e( 19 - 19) =     14.32134  eV     1   --> A_1  L_1       

 **************************************************************************

 **************************************************************************

                    xk=(   0.00000,   0.00000,   0.23036  )

     Band symmetry, C_3v (3m)   point group:

     e(  1 -  2) =    -13.62389  eV     2   --> E    L_3       
     e(  3 -  4) =    -13.50181  eV     2   --> E    L_3       
     e(  5 -  5) =    -13.48241  eV     1   --> A_1  L_1       
     e(  6 -  6) =    -13.35429  eV     1   --> A_1  L_1       
     e(  7 -  8) =    -13.34154  eV     2   --> E    L_3       
     e(  9 - 10) =    -13.24508  eV     2   --> E    L_3       
     e( 11 - 11) =     -3.35377  eV     1   --> A_1  L_1       
     e( 12 - 12) =      1.00756  eV     1   --> A_1  L_1       
     e( 13 - 13) =      8.05819  eV     1   --> A_1  L_1       
     e( 14 - 15) =      8.16941  eV     2   --> E    L_3       
     e( 16 - 16) =     10.96459  eV     1   --> A_1  L_1       
     e( 17 - 18) =     11.36627  eV     2   --> E    L_3       
     e( 19 - 19) =     14.33053  eV     1   --> A_1  L_1       

 **************************************************************************

 **************************************************************************

                    xk=(   0.00000,   0.00000,   0.24037  )

     Band symmetry, C_3v (3m)   point group:

     e(  1 -  2) =    -13.62225  eV     2   --> E    L_3       
     e(  3 -  4) =    -13.50113  eV     2   --> E    L_3       
     e(  5 -  5) =    -13.48171  eV     1   --> A_1  L_1       
     e(  6 -  6) =    -13.35492  eV     1   --> A_1  L_1       
     e(  7 -  8) =    -13.34208  eV     2   --> E    L_3       
     e(  9 - 10) =    -13.24689  eV     2   --> E    L_3       
     e( 11 - 11) =     -3.33210  eV     1   --> A_1  L_1       
     e( 12 - 12) =      0.95946  eV     1   --> A_1  L_1       
     e( 13 - 13) =      8.06651  eV     1   --> A_1  L_1       
     e( 14 - 15) =      8.17905  eV     2   --> E    L_3       
     e( 16 - 16) =     10.92247  eV     1   --> A_1  L_1       
     e( 17 - 18) =     11.31375  eV     2   --> E    L_3       
     e( 19 - 19) =     14.34359  eV     1   --> A_1  L_1       

 **************************************************************************

 **************************************************************************

                    xk=(   0.00000,   0.00000,   0.25039  )

     Band symmetry, C_3v (3m)   point group:

     e(  1 -  2) =    -13.62057  eV     2   --> E    L_3       
     e(  3 -  4) =    -13.50044  eV     2   --> E    L_3       
     e(  5 -  5) =    -13.48100  eV     1   --> A_1  L_1       
     e(  6 -  6) =    -13.35556  eV     1   --> A_1  L_1       
     e(  7 -  8) =    -13.34263  eV     2   --> E    L_3       
     e(  9 - 10) =    -13.24875  eV     2   --> E    L_3       
     e( 11 - 11) =     -3.30965  eV     1   --> A_1  L_1       
     e( 12 - 12) =      0.91038  eV     1   --> A_1  L_1       
     e( 13 - 13) =      8.07468  eV     1   --> A_1  L_1       
     e( 14 - 15) =      8.18912  eV     2   --> E    L_3       
     e( 16 - 16) =     10.88033  eV     1   --> A_1  L_1       
     e( 17 - 18) =     11.26089  eV     2   --> E    L_3       
     e( 19 - 19) =     14.36047  eV     1   --> A_1  L_1       

 **************************************************************************

 **************************************************************************

                    xk=(   0.00000,   0.00000,   0.26040  )

     Band symmetry, C_3v (3m)   point group:

     e(  1 -  2) =    -13.61884  eV     2   --> E    L_3       
     e(  3 -  4) =    -13.49974  eV     2   --> E    L_3       
     e(  5 -  5) =    -13.48027  eV     1   --> A_1  L_1       
     e(  6 -  6) =    -13.35623  eV     1   --> A_1  L_1       
     e(  7 -  8) =    -13.34319  eV     2   --> E    L_3       
     e(  9 - 10) =    -13.25065  eV     2   --> E    L_3       
     e( 11 - 11) =     -3.28646  eV     1   --> A_1  L_1       
     e( 12 - 12) =      0.86043  eV     1   --> A_1  L_1       
     e( 13 - 13) =      8.08269  eV     1   --> A_1  L_1       
     e( 14 - 15) =      8.19961  eV     2   --> E    L_3       
     e( 16 - 16) =     10.83828  eV     1   --> A_1  L_1       
     e( 17 - 18) =     11.20782  eV     2   --> E    L_3       
     e( 19 - 19) =     14.38113  eV     1   --> A_1  L_1       

 **************************************************************************

 **************************************************************************

                    xk=(   0.00000,   0.00000,   0.27042  )

     Band symmetry, C_3v (3m)   point group:

     e(  1 -  2) =    -13.61707  eV     2   --> E    L_3       
     e(  3 -  4) =    -13.49903  eV     2   --> E    L_3       
     e(  5 -  5) =    -13.47952  eV     1   --> A_1  L_1       
     e(  6 -  6) =    -13.35691  eV     1   --> A_1  L_1       
     e(  7 -  8) =    -13.34376  eV     2   --> E    L_3       
     e(  9 - 10) =    -13.25259  eV     2   --> E    L_3       
     e( 11 - 11) =     -3.26255  eV     1   --> A_1  L_1       
     e( 12 - 12) =      0.80970  eV     1   --> A_1  L_1       
     e( 13 - 13) =      8.09050  eV     1   --> A_1  L_1       
     e( 14 - 15) =      8.21053  eV     2   --> E    L_3       
     e( 16 - 16) =     10.79641  eV     1   --> A_1  L_1       
     e( 17 - 18) =     11.15465  eV     2   --> E    L_3       
     e( 19 - 19) =     14.40551  eV     1   --> A_1  L_1       

 **************************************************************************

 **************************************************************************

                    xk=(   0.00000,   0.00000,   0.28044  )

     Band symmetry, C_3v (3m)   point group:

     e(  1 -  2) =    -13.61527  eV     2   --> E    L_3       
     e(  3 -  4) =    -13.49830  eV     2   --> E    L_3       
     e(  5 -  5) =    -13.47875  eV     1   --> A_1  L_1       
     e(  6 -  6) =    -13.35760  eV     1   --> A_1  L_1       
     e(  7 -  8) =    -13.34434  eV     2   --> E    L_3       
     e(  9 - 10) =    -13.25457  eV     2   --> E    L_3       
     e( 11 - 11) =     -3.23794  eV     1   --> A_1  L_1       
     e( 12 - 12) =      0.75829  eV     1   --> A_1  L_1       
     e( 13 - 13) =      8.09812  eV     1   --> A_1  L_1       
     e( 14 - 15) =      8.22186  eV     2   --> E    L_3       
     e( 16 - 16) =     10.75482  eV     1   --> A_1  L_1       
     e( 17 - 18) =     11.10148  eV     2   --> E    L_3       
     e( 19 - 19) =     14.43353  eV     1   --> A_1  L_1       

 **************************************************************************

 **************************************************************************

                    xk=(   0.00000,   0.00000,   0.29045  )

     Band symmetry, C_3v (3m)   point group:

     e(  1 -  2) =    -13.61344  eV     2   --> E    L_3       
     e(  3 -  4) =    -13.49757  eV     2   --> E    L_3       
     e(  5 -  5) =    -13.47797  eV     1   --> A_1  L_1       
     e(  6 -  6) =    -13.35831  eV     1   --> A_1  L_1       
     e(  7 -  8) =    -13.34492  eV     2   --> E    L_3       
     e(  9 - 10) =    -13.25659  eV     2   --> E    L_3       
     e( 11 - 11) =     -3.21267  eV     1   --> A_1  L_1       
     e( 12 - 12) =      0.70632  eV     1   --> A_1  L_1       
     e( 13 - 13) =      8.10551  eV     1   --> A_1  L_1       
     e( 14 - 15) =      8.23360  eV     2   --> E    L_3       
     e( 16 - 16) =     10.71360  eV     1   --> A_1  L_1       
     e( 17 - 18) =     11.04841  eV     2   --> E    L_3       
     e( 19 - 19) =     14.46512  eV     1   --> A_1  L_1       

 **************************************************************************

 **************************************************************************

                    xk=(   0.00000,   0.00000,   0.30047  )

     Band symmetry, C_3v (3m)   point group:

     e(  1 -  2) =    -13.61158  eV     2   --> E    L_3       
     e(  3 -  4) =    -13.49683  eV     2   --> E    L_3       
     e(  5 -  5) =    -13.47718  eV     1   --> A_1  L_1       
     e(  6 -  6) =    -13.35903  eV     1   --> A_1  L_1       
     e(  7 -  8) =    -13.34551  eV     2   --> E    L_3       
     e(  9 - 10) =    -13.25863  eV     2   --> E    L_3       
     e( 11 - 11) =     -3.18677  eV     1   --> A_1  L_1       
     e( 12 - 12) =      0.65387  eV     1   --> A_1  L_1       
     e( 13 - 13) =      8.11268  eV     1   --> A_1  L_1       
     e( 14 - 15) =      8.24574  eV     2   --> E    L_3       
     e( 16 - 16) =     10.67284  eV     1   --> A_1  L_1       
     e( 17 - 18) =     10.99555  eV     2   --> E    L_3       
     e( 19 - 19) =     14.50020  eV     1   --> A_1  L_1       

 **************************************************************************

 **************************************************************************

                    xk=(   0.00000,   0.00000,   0.31048  )

     Band symmetry, C_3v (3m)   point group:

     e(  1 -  2) =    -13.60970  eV     2   --> E    L_3       
     e(  3 -  4) =    -13.49609  eV     2   --> E    L_3       
     e(  5 -  5) =    -13.47638  eV     1   --> A_1  L_1       
     e(  6 -  6) =    -13.35977  eV     1   --> A_1  L_1       
     e(  7 -  8) =    -13.34610  eV     2   --> E    L_3       
     e(  9 - 10) =    -13.26070  eV     2   --> E    L_3       
     e( 11 - 11) =     -3.16027  eV     1   --> A_1  L_1       
     e( 12 - 12) =      0.60107  eV     1   --> A_1  L_1       
     e( 13 - 13) =      8.11961  eV     1   --> A_1  L_1       
     e( 14 - 15) =      8.25827  eV     2   --> E    L_3       
     e( 16 - 16) =     10.63262  eV     1   --> A_1  L_1       
     e( 17 - 18) =     10.94298  eV     2   --> E    L_3       
     e( 19 - 19) =     14.53868  eV     1   --> A_1  L_1       

 **************************************************************************

 **************************************************************************

                    xk=(   0.00000,   0.00000,   0.32050  )

     Band symmetry, C_3v (3m)   point group:

     e(  1 -  2) =    -13.60781  eV     2   --> E    L_3       
     e(  3 -  4) =    -13.49535  eV     2   --> E    L_3       
     e(  5 -  5) =    -13.47557  eV     1   --> A_1  L_1       
     e(  6 -  6) =    -13.36051  eV     1   --> A_1  L_1       
     e(  7 -  8) =    -13.34669  eV     2   --> E    L_3       
     e(  9 - 10) =    -13.26278  eV     2   --> E    L_3       
     e( 11 - 11) =     -3.13322  eV     1   --> A_1  L_1       
     e( 12 - 12) =      0.54801  eV     1   --> A_1  L_1       
     e( 13 - 13) =      8.12631  eV     1   --> A_1  L_1       
     e( 14 - 15) =      8.27118  eV     2   --> E    L_3       
     e( 16 - 16) =     10.59301  eV     1   --> A_1  L_1       
     e( 17 - 18) =     10.89080  eV     2   --> E    L_3       
     e( 19 - 19) =     14.58046  eV     1   --> A_1  L_1       

 **************************************************************************

 **************************************************************************

                    xk=(   0.00000,   0.00000,   0.33051  )

     Band symmetry, C_3v (3m)   point group:

     e(  1 -  2) =    -13.60590  eV     2   --> E    L_3       
     e(  3 -  4) =    -13.49460  eV     2   --> E    L_3       
     e(  5 -  5) =    -13.47475  eV     1   --> A_1  L_1       
     e(  6 -  6) =    -13.36125  eV     1   --> A_1  L_1       
     e(  7 -  8) =    -13.34728  eV     2   --> E    L_3       
     e(  9 - 10) =    -13.26488  eV     2   --> E    L_3       
     e( 11 - 11) =     -3.10566  eV     1   --> A_1  L_1       
     e( 12 - 12) =      0.49479  eV     1   --> A_1  L_1       
     e( 13 - 13) =      8.13277  eV     1   --> A_1  L_1       
     e( 14 - 15) =      8.28446  eV     2   --> E    L_3       
     e( 16 - 16) =     10.55410  eV     1   --> A_1  L_1       
     e( 17 - 18) =     10.83908  eV     2   --> E    L_3       
     e( 19 - 19) =     14.62544  eV     1   --> A_1  L_1       

 **************************************************************************

 **************************************************************************

                    xk=(   0.00000,   0.00000,   0.34053  )

     Band symmetry, C_3v (3m)   point group:

     e(  1 -  2) =    -13.60398  eV     2   --> E    L_3       
     e(  3 -  4) =    -13.49386  eV     2   --> E    L_3       
     e(  5 -  5) =    -13.47393  eV     1   --> A_1  L_1       
     e(  6 -  6) =    -13.36201  eV     1   --> A_1  L_1       
     e(  7 -  8) =    -13.34787  eV     2   --> E    L_3       
     e(  9 - 10) =    -13.26699  eV     2   --> E    L_3       
     e( 11 - 11) =     -3.07763  eV     1   --> A_1  L_1       
     e( 12 - 12) =      0.44154  eV     1   --> A_1  L_1       
     e( 13 - 13) =      8.13899  eV     1   --> A_1  L_1       
     e( 14 - 15) =      8.29808  eV     2   --> E    L_3       
     e( 16 - 16) =     10.51595  eV     1   --> A_1  L_1       
     e( 17 - 18) =     10.78793  eV     2   --> E    L_3       
     e( 19 - 19) =     14.67351  eV     1   --> A_1  L_1       

 **************************************************************************

 **************************************************************************

                    xk=(   0.00000,   0.00000,   0.35054  )

     Band symmetry, C_3v (3m)   point group:

     e(  1 -  2) =    -13.60206  eV     2   --> E    L_3       
     e(  3 -  4) =    -13.49312  eV     2   --> E    L_3       
     e(  5 -  5) =    -13.47311  eV     1   --> A_1  L_1       
     e(  6 -  6) =    -13.36276  eV     1   --> A_1  L_1       
     e(  7 -  8) =    -13.34845  eV     2   --> E    L_3       
     e(  9 - 10) =    -13.26910  eV     2   --> E    L_3       
     e( 11 - 11) =     -3.04919  eV     1   --> A_1  L_1       
     e( 12 - 12) =      0.38835  eV     1   --> A_1  L_1       
     e( 13 - 13) =      8.14496  eV     1   --> A_1  L_1       
     e( 14 - 15) =      8.31202  eV     2   --> E    L_3       
     e( 16 - 16) =     10.47863  eV     1   --> A_1  L_1       
     e( 17 - 18) =     10.73743  eV     2   --> E    L_3       
     e( 19 - 19) =     14.72455  eV     1   --> A_1  L_1       

 **************************************************************************

 **************************************************************************

                    xk=(   0.00000,   0.00000,   0.36056  )

     Band symmetry, C_3v (3m)   point group:

     e(  1 -  2) =    -13.60014  eV     2   --> E    L_3       
     e(  3 -  4) =    -13.49239  eV     2   --> E    L_3       
     e(  5 -  5) =    -13.47228  eV     1   --> A_1  L_1       
     e(  6 -  6) =    -13.36352  eV     1   --> A_1  L_1       
     e(  7 -  8) =    -13.34902  eV     2   --> E    L_3       
     e(  9 - 10) =    -13.27121  eV     2   --> E    L_3       
     e( 11 - 11) =     -3.02039  eV     1   --> A_1  L_1       
     e( 12 - 12) =      0.33534  eV     1   --> A_1  L_1       
     e( 13 - 13) =      8.15070  eV     1   --> A_1  L_1       
     e( 14 - 15) =      8.32627  eV     2   --> E    L_3       
     e( 16 - 16) =     10.44221  eV     1   --> A_1  L_1       
     e( 17 - 18) =     10.68764  eV     2   --> E    L_3       
     e( 19 - 19) =     14.77843  eV     1   --> A_1  L_1       

 **************************************************************************

 **************************************************************************

                    xk=(   0.00000,   0.00000,   0.37058  )

     Band symmetry, C_3v (3m)   point group:

     e(  1 -  2) =    -13.59823  eV     2   --> E    L_3       
     e(  3 -  4) =    -13.49167  eV     2   --> E    L_3       
     e(  5 -  5) =    -13.47146  eV     1   --> A_1  L_1       
     e(  6 -  6) =    -13.36428  eV     1   --> A_1  L_1       
     e(  7 -  8) =    -13.34958  eV     2   --> E    L_3       
     e(  9 - 10) =    -13.27332  eV     2   --> E    L_3       
     e( 11 - 11) =     -2.99130  eV     1   --> A_1  L_1       
     e( 12 - 12) =      0.28263  eV     1   --> A_1  L_1       
     e( 13 - 13) =      8.15620  eV     1   --> A_1  L_1       
     e( 14 - 15) =      8.34079  eV     2   --> E    L_3       
     e( 16 - 16) =     10.40675  eV     1   --> A_1  L_1       
     e( 17 - 18) =     10.63867  eV     2   --> E    L_3       
     e( 19 - 19) =     14.83503  eV     1   --> A_1  L_1       

 **************************************************************************

 **************************************************************************

                    xk=(   0.00000,   0.00000,   0.38059  )

     Band symmetry, C_3v (3m)   point group:

     e(  1 -  2) =    -13.59633  eV     2   --> E    L_3       
     e(  3 -  4) =    -13.49096  eV     2   --> E    L_3       
     e(  5 -  5) =    -13.47064  eV     1   --> A_1  L_1       
     e(  6 -  6) =    -13.36503  eV     1   --> A_1  L_1       
     e(  7 -  8) =    -13.35013  eV     2   --> E    L_3       
     e(  9 - 10) =    -13.27540  eV     2   --> E    L_3       
     e( 11 - 11) =     -2.96198  eV     1   --> A_1  L_1       
     e( 12 - 12) =      0.23034  eV     1   --> A_1  L_1       
     e( 13 - 13) =      8.16146  eV     1   --> A_1  L_1       
     e( 14 - 15) =      8.35555  eV     2   --> E    L_3       
     e( 16 - 16) =     10.37231  eV     1   --> A_1  L_1       
     e( 17 - 18) =     10.59059  eV     2   --> E    L_3       
     e( 19 - 19) =     14.89420  eV     1   --> A_1  L_1       

 **************************************************************************

 **************************************************************************

                    xk=(   0.00000,   0.00000,   0.39061  )

     Band symmetry, C_3v (3m)   point group:

     e(  1 -  2) =    -13.59446  eV     2   --> E    L_3       
     e(  3 -  4) =    -13.49026  eV     2   --> E    L_3       
     e(  5 -  5) =    -13.46983  eV     1   --> A_1  L_1       
     e(  6 -  6) =    -13.36578  eV     1   --> A_1  L_1       
     e(  7 -  8) =    -13.35067  eV     2   --> E    L_3       
     e(  9 - 10) =    -13.27747  eV     2   --> E    L_3       
     e( 11 - 11) =     -2.93251  eV     1   --> A_1  L_1       
     e( 12 - 12) =      0.17858  eV     1   --> A_1  L_1       
     e( 13 - 13) =      8.16650  eV     1   --> A_1  L_1       
     e( 14 - 15) =      8.37052  eV     2   --> E    L_3       
     e( 16 - 16) =     10.33895  eV     1   --> A_1  L_1       
     e( 17 - 18) =     10.54349  eV     2   --> E    L_3       
     e( 19 - 19) =     14.95578  eV     1   --> A_1  L_1       

 **************************************************************************

 **************************************************************************

                    xk=(   0.00000,   0.00000,   0.40062  )

     Band symmetry, C_3v (3m)   point group:

     e(  1 -  2) =    -13.59260  eV     2   --> E    L_3       
     e(  3 -  4) =    -13.48958  eV     2   --> E    L_3       
     e(  5 -  5) =    -13.46903  eV     1   --> A_1  L_1       
     e(  6 -  6) =    -13.36652  eV     1   --> A_1  L_1       
     e(  7 -  8) =    -13.35119  eV     2   --> E    L_3       
     e(  9 - 10) =    -13.27952  eV     2   --> E    L_3       
     e( 11 - 11) =     -2.90297  eV     1   --> A_1  L_1       
     e( 12 - 12) =      0.12749  eV     1   --> A_1  L_1       
     e( 13 - 13) =      8.17131  eV     1   --> A_1  L_1       
     e( 14 - 15) =      8.38565  eV     2   --> E    L_3       
     e( 16 - 16) =     10.30673  eV     1   --> A_1  L_1       
     e( 17 - 18) =     10.49745  eV     2   --> E    L_3       
     e( 19 - 19) =     15.01962  eV     1   --> A_1  L_1       

 **************************************************************************

 **************************************************************************

                    xk=(   0.00000,   0.00000,   0.41064  )

     Band symmetry, C_3v (3m)   point group:

     e(  1 -  2) =    -13.59078  eV     2   --> E    L_3       
     e(  3 -  4) =    -13.48892  eV     2   --> E    L_3       
     e(  5 -  5) =    -13.46824  eV     1   --> A_1  L_1       
     e(  6 -  6) =    -13.36726  eV     1   --> A_1  L_1       
     e(  7 -  8) =    -13.35170  eV     2   --> E    L_3       
     e(  9 - 10) =    -13.28153  eV     2   --> E    L_3       
     e( 11 - 11) =     -2.87345  eV     1   --> A_1  L_1       
     e( 12 - 12) =      0.07720  eV     1   --> A_1  L_1       
     e( 13 - 13) =      8.17589  eV     1   --> A_1  L_1       
     e( 14 - 15) =      8.40090  eV     2   --> E    L_3       
     e( 16 - 16) =     10.27570  eV     1   --> A_1  L_1       
     e( 17 - 18) =     10.45256  eV     2   --> E    L_3       
     e( 19 - 19) =     15.08551  eV     1   --> A_1  L_1       

 **************************************************************************

 **************************************************************************

                    xk=(   0.00000,   0.00000,   0.42065  )

     Band symmetry, C_3v (3m)   point group:

     e(  1 -  2) =    -13.58900  eV     2   --> E    L_3       
     e(  3 -  4) =    -13.48828  eV     2   --> E    L_3       
     e(  5 -  5) =    -13.46746  eV     1   --> A_1  L_1       
     e(  6 -  6) =    -13.36798  eV     1   --> A_1  L_1       
     e(  7 -  8) =    -13.35218  eV     2   --> E    L_3       
     e(  9 - 10) =    -13.28350  eV     2   --> E    L_3       
     e( 11 - 11) =     -2.84404  eV     1   --> A_1  L_1       
     e( 12 - 12) =      0.02784  eV     1   --> A_1  L_1       
     e( 13 - 13) =      8.18025  eV     1   --> A_1  L_1       
     e( 14 - 15) =      8.41621  eV     2   --> E    L_3       
     e( 16 - 16) =     10.24592  eV     1   --> A_1  L_1       
     e( 17 - 18) =     10.40892  eV     2   --> E    L_3       
     e( 19 - 19) =     15.15327  eV     1   --> A_1  L_1       

 **************************************************************************

 **************************************************************************

                    xk=(   0.00000,   0.00000,   0.43067  )

     Band symmetry, C_3v (3m)   point group:

     e(  1 -  2) =    -13.58726  eV     2   --> E    L_3       
     e(  3 -  4) =    -13.48766  eV     2   --> E    L_3       
     e(  5 -  5) =    -13.46670  eV     1   --> A_1  L_1       
     e(  6 -  6) =    -13.36868  eV     1   --> A_1  L_1       
     e(  7 -  8) =    -13.35265  eV     2   --> E    L_3       
     e(  9 - 10) =    -13.28542  eV     2   --> E    L_3       
     e( 11 - 11) =     -2.81485  eV     1   --> A_1  L_1       
     e( 12 - 12) =     -0.02043  eV     1   --> A_1  L_1       
     e( 13 - 13) =      8.18440  eV     1   --> A_1  L_1       
     e( 14 - 15) =      8.43153  eV     2   --> E    L_3       
     e( 16 - 16) =     10.21743  eV     1   --> A_1  L_1       
     e( 17 - 18) =     10.36661  eV     2   --> E    L_3       
     e( 19 - 19) =     15.22267  eV     1   --> A_1  L_1       

 **************************************************************************

 **************************************************************************

                    xk=(   0.00000,   0.00000,   0.44069  )

     Band symmetry, C_3v (3m)   point group:

     e(  1 -  2) =    -13.58557  eV     2   --> E    L_3       
     e(  3 -  4) =    -13.48706  eV     2   --> E    L_3       
     e(  5 -  5) =    -13.46596  eV     1   --> A_1  L_1       
     e(  6 -  6) =    -13.36936  eV     1   --> A_1  L_1       
     e(  7 -  8) =    -13.35309  eV     2   --> E    L_3       
     e(  9 - 10) =    -13.28729  eV     2   --> E    L_3       
     e( 11 - 11) =     -2.78601  eV     1   --> A_1  L_1       
     e( 12 - 12) =     -0.06746  eV     1   --> A_1  L_1       
     e( 13 - 13) =      8.18832  eV     1   --> A_1  L_1       
     e( 14 - 15) =      8.44679  eV     2   --> E    L_3       
     e( 16 - 16) =     10.19028  eV     1   --> A_1  L_1       
     e( 17 - 18) =     10.32574  eV     2   --> E    L_3       
     e( 19 - 19) =     15.29346  eV     1   --> A_1  L_1       

 **************************************************************************

 **************************************************************************

                    xk=(   0.00000,   0.00000,   0.45070  )

     Band symmetry, C_3v (3m)   point group:

     e(  1 -  2) =    -13.58394  eV     2   --> E    L_3       
     e(  3 -  4) =    -13.48649  eV     2   --> E    L_3       
     e(  5 -  5) =    -13.46525  eV     1   --> A_1  L_1       
     e(  6 -  6) =    -13.37003  eV     1   --> A_1  L_1       
     e(  7 -  8) =    -13.35350  eV     2   --> E    L_3       
     e(  9 - 10) =    -13.28910  eV     2   --> E    L_3       
     e( 11 - 11) =     -2.75763  eV     1   --> A_1  L_1       
     e( 12 - 12) =     -0.11309  eV     1   --> A_1  L_1       
     e( 13 - 13) =      8.19203  eV     1   --> A_1  L_1       
     e( 14 - 15) =      8.46192  eV     2   --> E    L_3       
     e( 16 - 16) =     10.16452  eV     1   --> A_1  L_1       
     e( 17 - 18) =     10.28641  eV     2   --> E    L_3       
     e( 19 - 19) =     15.36536  eV     1   --> A_1  L_1       

 **************************************************************************

 **************************************************************************

                    xk=(   0.00000,   0.00000,   0.46072  )

     Band symmetry, C_3v (3m)   point group:

     e(  1 -  2) =    -13.58237  eV     2   --> E    L_3       
     e(  3 -  4) =    -13.48595  eV     2   --> E    L_3       
     e(  5 -  5) =    -13.46456  eV     1   --> A_1  L_1       
     e(  6 -  6) =    -13.37067  eV     1   --> A_1  L_1       
     e(  7 -  8) =    -13.35390  eV     2   --> E    L_3       
     e(  9 - 10) =    -13.29084  eV     2   --> E    L_3       
     e( 11 - 11) =     -2.72985  eV     1   --> A_1  L_1       
     e( 12 - 12) =     -0.15715  eV     1   --> A_1  L_1       
     e( 13 - 13) =      8.19551  eV     1   --> A_1  L_1       
     e( 14 - 15) =      8.47684  eV     2   --> E    L_3       
     e( 16 - 16) =     10.14019  eV     1   --> A_1  L_1       
     e( 17 - 18) =     10.24872  eV     2   --> E    L_3       
     e( 19 - 19) =     15.43804  eV     1   --> A_1  L_1       

 **************************************************************************

 **************************************************************************

                    xk=(   0.00000,   0.00000,   0.47073  )

     Band symmetry, C_3v (3m)   point group:

     e(  1 -  2) =    -13.58088  eV     2   --> E    L_3       
     e(  3 -  4) =    -13.48544  eV     2   --> E    L_3       
     e(  5 -  5) =    -13.46391  eV     1   --> A_1  L_1       
     e(  6 -  6) =    -13.37128  eV     1   --> A_1  L_1       
     e(  7 -  8) =    -13.35426  eV     2   --> E    L_3       
     e(  9 - 10) =    -13.29250  eV     2   --> E    L_3       
     e( 11 - 11) =     -2.70283  eV     1   --> A_1  L_1       
     e( 12 - 12) =     -0.19946  eV     1   --> A_1  L_1       
     e( 13 - 13) =      8.19878  eV     1   --> A_1  L_1       
     e( 14 - 15) =      8.49145  eV     2   --> E    L_3       
     e( 16 - 16) =     10.11734  eV     1   --> A_1  L_1       
     e( 17 - 18) =     10.21281  eV     2   --> E    L_3       
     e( 19 - 19) =     15.51115  eV     1   --> A_1  L_1       

 **************************************************************************

 **************************************************************************

                    xk=(   0.00000,   0.00000,   0.48075  )

     Band symmetry, C_3v (3m)   point group:

     e(  1 -  2) =    -13.57946  eV     2   --> E    L_3       
     e(  3 -  4) =    -13.48496  eV     2   --> E    L_3       
     e(  5 -  5) =    -13.46328  eV     1   --> A_1  L_1       
     e(  6 -  6) =    -13.37186  eV     1   --> A_1  L_1       
     e(  7 -  8) =    -13.35460  eV     2   --> E    L_3       
     e(  9 - 10) =    -13.29408  eV     2   --> E    L_3       
     e( 11 - 11) =     -2.67672  eV     1   --> A_1  L_1       
     e( 12 - 12) =     -0.23984  eV     1   --> A_1  L_1       
     e( 13 - 13) =      8.20183  eV     1   --> A_1  L_1       
     e( 14 - 15) =      8.50567  eV     2   --> E    L_3       
     e( 16 - 16) =     10.09600  eV     1   --> A_1  L_1       
     e( 17 - 18) =     10.17877  eV     2   --> E    L_3       
     e( 19 - 19) =     15.58425  eV     1   --> A_1  L_1       

 **************************************************************************

 **************************************************************************

                    xk=(   0.00000,   0.00000,   0.49076  )

     Band symmetry, C_3v (3m)   point group:

     e(  1 -  2) =    -13.57812  eV     2   --> E    L_3       
     e(  3 -  4) =    -13.48451  eV     2   --> E    L_3       
     e(  5 -  5) =    -13.46269  eV     1   --> A_1  L_1       
     e(  6 -  6) =    -13.37241  eV     1   --> A_1  L_1       
     e(  7 -  8) =    -13.35491  eV     2   --> E    L_3       
     e(  9 - 10) =    -13.29557  eV     2   --> E    L_3       
     e( 11 - 11) =     -2.65170  eV     1   --> A_1  L_1       
     e( 12 - 12) =     -0.27808  eV     1   --> A_1  L_1       
     e( 13 - 13) =      8.20466  eV     1   --> A_1  L_1       
     e( 14 - 15) =      8.51938  eV     2   --> E    L_3       
     e( 16 - 16) =     10.07622  eV     1   --> A_1  L_1       
     e( 17 - 18) =     10.14675  eV     2   --> E    L_3       
     e( 19 - 19) =     15.65684  eV     1   --> A_1  L_1       

 **************************************************************************

 **************************************************************************

                    xk=(   0.00000,   0.00000,   0.50078  )

     Band symmetry, C_3v (3m)   point group:

     e(  1 -  2) =    -13.57688  eV     2   --> E    L_3       
     e(  3 -  4) =    -13.48410  eV     2   --> E    L_3       
     e(  5 -  5) =    -13.46214  eV     1   --> A_1  L_1       
     e(  6 -  6) =    -13.37293  eV     1   --> A_1  L_1       
     e(  7 -  8) =    -13.35519  eV     2   --> E    L_3       
     e(  9 - 10) =    -13.29696  eV     2   --> E    L_3       
     e( 11 - 11) =     -2.62794  eV     1   --> A_1  L_1       
     e( 12 - 12) =     -0.31399  eV     1   --> A_1  L_1       
     e( 13 - 13) =      8.20725  eV     1   --> A_1  L_1       
     e( 14 - 15) =      8.53248  eV     2   --> E    L_3       
     e( 16 - 16) =     10.05803  eV     1   --> A_1  L_1       
     e( 17 - 18) =     10.11687  eV     2   --> E    L_3       
     e( 19 - 19) =     15.72834  eV     1   --> A_1  L_1       

 **************************************************************************

 **************************************************************************

                    xk=(   0.00000,   0.00000,   0.51079  )

     Band symmetry, C_3v (3m)   point group:

     e(  1 -  2) =    -13.57573  eV     2   --> E    L_3       
     e(  3 -  4) =    -13.48373  eV     2   --> E    L_3       
     e(  5 -  5) =    -13.46163  eV     1   --> A_1  L_1       
     e(  6 -  6) =    -13.37340  eV     1   --> A_1  L_1       
     e(  7 -  8) =    -13.35545  eV     2   --> E    L_3       
     e(  9 - 10) =    -13.29824  eV     2   --> E    L_3       
     e( 11 - 11) =     -2.60563  eV     1   --> A_1  L_1       
     e( 12 - 12) =     -0.34735  eV     1   --> A_1  L_1       
     e( 13 - 13) =      8.20962  eV     1   --> A_1  L_1       
     e( 14 - 15) =      8.54485  eV     2   --> E    L_3       
     e( 16 - 16) =     10.04146  eV     1   --> A_1  L_1       
     e( 17 - 18) =     10.08926  eV     2   --> E    L_3       
     e( 19 - 19) =     15.79807  eV     1   --> A_1  L_1       

 **************************************************************************

 **************************************************************************

                    xk=(   0.00000,   0.00000,   0.52081  )

     Band symmetry, C_3v (3m)   point group:

     e(  1 -  2) =    -13.57469  eV     2   --> E    L_3       
     e(  3 -  4) =    -13.48339  eV     2   --> E    L_3       
     e(  5 -  5) =    -13.46117  eV     1   --> A_1  L_1       
     e(  6 -  6) =    -13.37384  eV     1   --> A_1  L_1       
     e(  7 -  8) =    -13.35567  eV     2   --> E    L_3       
     e(  9 - 10) =    -13.29941  eV     2   --> E    L_3       
     e( 11 - 11) =     -2.58496  eV     1   --> A_1  L_1       
     e( 12 - 12) =     -0.37796  eV     1   --> A_1  L_1       
     e( 13 - 13) =      8.21176  eV     1   --> A_1  L_1       
     e( 14 - 15) =      8.55638  eV     2   --> E    L_3       
     e( 16 - 16) =     10.02655  eV     1   --> A_1  L_1       
     e( 17 - 18) =     10.06406  eV     2   --> E    L_3       
     e( 19 - 19) =     15.86522  eV     1   --> A_1  L_1       

 **************************************************************************

 **************************************************************************

                    xk=(   0.00000,   0.00000,   0.53083  )

     Band symmetry, C_3v (3m)   point group:

     e(  1 -  2) =    -13.57375  eV     2   --> E    L_3       
     e(  3 -  4) =    -13.48309  eV     2   --> E    L_3       
     e(  5 -  5) =    -13.46076  eV     1   --> A_1  L_1       
     e(  6 -  6) =    -13.37423  eV     1   --> A_1  L_1       
     e(  7 -  8) =    -13.35587  eV     2   --> E    L_3       
     e(  9 - 10) =    -13.30047  eV     2   --> E    L_3       
     e( 11 - 11) =     -2.56613  eV     1   --> A_1  L_1       
     e( 12 - 12) =     -0.40560  eV     1   --> A_1  L_1       
     e( 13 - 13) =      8.21365  eV     1   --> A_1  L_1       
     e( 14 - 15) =      8.56692  eV     2   --> E    L_3       
     e( 16 - 16) =     10.01332  eV     1   --> A_1  L_1       
     e( 17 - 18) =     10.04142  eV     2   --> E    L_3       
     e( 19 - 19) =     15.92887  eV     1   --> A_1  L_1       

 **************************************************************************

 **************************************************************************

                    xk=(   0.00000,   0.00000,   0.54084  )

     Band symmetry, C_3v (3m)   point group:

     e(  1 -  2) =    -13.57293  eV     2   --> E    L_3       
     e(  3 -  4) =    -13.48283  eV     2   --> E    L_3       
     e(  5 -  5) =    -13.46039  eV     1   --> A_1  L_1       
     e(  6 -  6) =    -13.37457  eV     1   --> A_1  L_1       
     e(  7 -  8) =    -13.35604  eV     2   --> E    L_3       
     e(  9 - 10) =    -13.30139  eV     2   --> E    L_3       
     e( 11 - 11) =     -2.54933  eV     1   --> A_1  L_1       
     e( 12 - 12) =     -0.43007  eV     1   --> A_1  L_1       
     e( 13 - 13) =      8.21530  eV     1   --> A_1  L_1       
     e( 14 - 15) =      8.57638  eV     2   --> E    L_3       
     e( 16 - 16) =     10.00180  eV     1   --> A_1  L_1       
     e( 17 - 18) =     10.02146  eV     2   --> E    L_3       
     e( 19 - 19) =     15.98793  eV     1   --> A_1  L_1       

 **************************************************************************

 **************************************************************************

                    xk=(   0.00000,   0.00000,   0.55086  )

     Band symmetry, C_3v (3m)   point group:

     e(  1 -  2) =    -13.57223  eV     2   --> E    L_3       
     e(  3 -  4) =    -13.48261  eV     2   --> E    L_3       
     e(  5 -  5) =    -13.46008  eV     1   --> A_1  L_1       
     e(  6 -  6) =    -13.37486  eV     1   --> A_1  L_1       
     e(  7 -  8) =    -13.35618  eV     2   --> E    L_3       
     e(  9 - 10) =    -13.30219  eV     2   --> E    L_3       
     e( 11 - 11) =     -2.53474  eV     1   --> A_1  L_1       
     e( 12 - 12) =     -0.45117  eV     1   --> A_1  L_1       
     e( 13 - 13) =      8.21671  eV     1   --> A_1  L_1       
     e( 14 - 15) =      8.58461  eV     2   --> E    L_3       
     e( 16 - 16) =      9.99202  eV     1   --> A_1  L_1       
     e( 17 - 18) =     10.00431  eV     2   --> E    L_3       
     e( 19 - 19) =     16.04121  eV     1   --> A_1  L_1       

 **************************************************************************

 **************************************************************************

                    xk=(   0.00000,   0.00000,   0.56087  )

     Band symmetry, C_3v (3m)   point group:

     e(  1 -  2) =    -13.57165  eV     2   --> E    L_3       
     e(  3 -  4) =    -13.48242  eV     2   --> E    L_3       
     e(  5 -  5) =    -13.45982  eV     1   --> A_1  L_1       
     e(  6 -  6) =    -13.37511  eV     1   --> A_1  L_1       
     e(  7 -  8) =    -13.35630  eV     2   --> E    L_3       
     e(  9 - 10) =    -13.30284  eV     2   --> E    L_3       
     e( 11 - 11) =     -2.52254  eV     1   --> A_1  L_1       
     e( 12 - 12) =     -0.46871  eV     1   --> A_1  L_1       
     e( 13 - 13) =      8.21787  eV     1   --> A_1  L_1       
     e( 14 - 15) =      8.59152  eV     2   --> E    L_3       
     e( 16 - 16) =      9.98398  eV     1   --> A_1  L_1       
     e( 17 - 18) =      9.99010  eV     2   --> E    L_3       
     e( 19 - 19) =     16.08740  eV     1   --> A_1  L_1       

 **************************************************************************

 **************************************************************************

                    xk=(   0.00000,   0.00000,   0.57089  )

     Band symmetry, C_3v (3m)   point group:

     e(  1 -  2) =    -13.57119  eV     2   --> E    L_3       
     e(  3 -  4) =    -13.48228  eV     2   --> E    L_3       
     e(  5 -  5) =    -13.45961  eV     1   --> A_1  L_1       
     e(  6 -  6) =    -13.37530  eV     1   --> A_1  L_1       
     e(  7 -  8) =    -13.35638  eV     2   --> E    L_3       
     e(  9 - 10) =    -13.30336  eV     2   --> E    L_3       
     e( 11 - 11) =     -2.51288  eV     1   --> A_1  L_1       
     e( 12 - 12) =     -0.48253  eV     1   --> A_1  L_1       
     e( 13 - 13) =      8.21877  eV     1   --> A_1  L_1       
     e( 14 - 15) =      8.59701  eV     2   --> E    L_3       
     e( 16 - 16) =      9.97772  eV     1   --> A_1  L_1       
     e( 17 - 18) =      9.97892  eV     2   --> E    L_3       
     e( 19 - 19) =     16.12518  eV     1   --> A_1  L_1       

 **************************************************************************

 **************************************************************************

                    xk=(   0.00000,   0.00000,   0.58090  )

     Band symmetry, C_3v (3m)   point group:

     e(  1 -  2) =    -13.57086  eV     2   --> E    L_3       
     e(  3 -  4) =    -13.48218  eV     2   --> E    L_3       
     e(  5 -  5) =    -13.45947  eV     1   --> A_1  L_1       
     e(  6 -  6) =    -13.37543  eV     1   --> A_1  L_1       
     e(  7 -  8) =    -13.35645  eV     2   --> E    L_3       
     e(  9 - 10) =    -13.30373  eV     2   --> E    L_3       
     e( 11 - 11) =     -2.50588  eV     1   --> A_1  L_1       
     e( 12 - 12) =     -0.49251  eV     1   --> A_1  L_1       
     e( 13 - 13) =      8.21942  eV     1   --> A_1  L_1       
     e( 14 - 15) =      8.60099  eV     2   --> E    L_3       
     e( 16 - 17) =      9.97087  eV     2   --> E    L_3       
     e( 18 - 18) =      9.97323  eV     1   --> A_1  L_1       
     e( 19 - 19) =     16.15326  eV     1   --> A_1  L_1       

 **************************************************************************

 **************************************************************************

                    xk=(   0.00000,   0.00000,   0.59092  )

     Band symmetry, C_3v (3m)   point group:

     e(  1 -  2) =    -13.57067  eV     2   --> E    L_3       
     e(  3 -  4) =    -13.48212  eV     2   --> E    L_3       
     e(  5 -  5) =    -13.45938  eV     1   --> A_1  L_1       
     e(  6 -  6) =    -13.37552  eV     1   --> A_1  L_1       
     e(  7 -  8) =    -13.35648  eV     2   --> E    L_3       
     e(  9 - 10) =    -13.30395  eV     2   --> E    L_3       
     e( 11 - 11) =     -2.50164  eV     1   --> A_1  L_1       
     e( 12 - 12) =     -0.49853  eV     1   --> A_1  L_1       
     e( 13 - 13) =      8.21981  eV     1   --> A_1  L_1       
     e( 14 - 15) =      8.60341  eV     2   --> E    L_3       
     e( 16 - 17) =      9.96602  eV     2   --> E    L_3       
     e( 18 - 18) =      9.97054  eV     1   --> A_1  L_1       
     e( 19 - 19) =     16.17059  eV     1   --> A_1  L_1       

 **************************************************************************

 **************************************************************************

                    xk=(   0.00000,   0.00000,   0.60093  )

     point group D_3d (-3m) 
     there are  6 classes
     the character table:

       E     2C3   3C2'  i     2S6   3s_d 
A_1g   1.00  1.00  1.00  1.00  1.00  1.00
A_2g   1.00  1.00 -1.00  1.00  1.00 -1.00
E_g    2.00 -1.00  0.00  2.00 -1.00  0.00
A_1u   1.00  1.00  1.00 -1.00 -1.00 -1.00
A_2u   1.00  1.00 -1.00 -1.00 -1.00  1.00
E_u    2.00 -1.00  0.00 -2.00  1.00  0.00

     the symmetry operations in each class and the name of the first element:

     E        1
                                                                 
     2C3      3    4
                                                                 
     3C2'     2    5    6
                                                                 
     i        7
                                                                 
     2S6      9   10
                                                                 
     3s_d     8   11   12
                                                                 

     Band symmetry, D_3d (-3m)  point group:

     e(  1 -  2) =    -13.57060  eV     2   --> E_g  L_3       
     e(  3 -  4) =    -13.48210  eV     2   --> E_u  L_3'      
     e(  5 -  5) =    -13.45935  eV     1   --> A_2u L_2'      
     e(  6 -  6) =    -13.37555  eV     1   --> A_1g L_1       
     e(  7 -  8) =    -13.35650  eV     2   --> E_g  L_3       
     e(  9 - 10) =    -13.30403  eV     2   --> E_u  L_3'      
     e( 11 - 11) =     -2.50022  eV     1   --> A_1g L_1       
     e( 12 - 12) =     -0.50055  eV     1   --> A_2u L_2'      
     e( 13 - 13) =      8.21994  eV     1   --> A_2u L_2'      
     e( 14 - 15) =      8.60422  eV     2   --> E_g  L_3       
     e( 16 - 17) =      9.96439  eV     2   --> E_u  L_3'      
     e( 18 - 18) =      9.96964  eV     1   --> A_1g L_1       
     e( 19 - 19) =     16.17645  eV     1   --> A_1g L_1       

 **************************************************************************

 **************************************************************************

                    xk=(   0.00899,   0.00000,   0.60093  )

     point group C_2  (2)   
     there are  2 classes
     the character table:

       E     C2   
A      1.00  1.00
B      1.00 -1.00

     the symmetry operations in each class and the name of the first element:

     E        1
                                                                 
     C2       2
                                                                 

     Band symmetry, C_2  (2)    point group:

     e(  1 -  2) =    -13.57062  eV     2   --> A              
     e(  1 -  2) =    -13.57062  eV     2   --> B              
     e(  3 -  4) =    -13.48210  eV     2   --> A              
     e(  3 -  4) =    -13.48210  eV     2   --> B              
     e(  5 -  5) =    -13.45935  eV     1   --> B              
     e(  6 -  6) =    -13.37555  eV     1   --> A              
     e(  7 -  8) =    -13.35651  eV     2   --> A              
     e(  7 -  8) =    -13.35651  eV     2   --> B              
     e(  9 - 10) =    -13.30404  eV     2   --> A              
     e(  9 - 10) =    -13.30404  eV     2   --> B              
     e( 11 - 11) =     -2.49985  eV     1   --> A              
     e( 12 - 12) =     -0.50050  eV     1   --> B              
     e( 13 - 13) =      8.19924  eV     1   --> B              
     e( 14 - 14) =      8.60130  eV     1   --> A              
     e( 15 - 15) =      8.62296  eV     1   --> B              
     e( 16 - 16) =      9.87940  eV     1   --> A              
     e( 17 - 17) =      9.96787  eV     1   --> B              
     e( 18 - 18) =     10.05825  eV     1   --> A              
     e( 19 - 19) =     16.17447  eV     1   --> A              

 **************************************************************************

 **************************************************************************

                    xk=(   0.01799,   0.00000,   0.60093  )

     Band symmetry, C_2  (2)    point group:

     e(  1 -  2) =    -13.57067  eV     2   --> A              
     e(  1 -  2) =    -13.57067  eV     2   --> B              
     e(  3 -  4) =    -13.48211  eV     2   --> A              
     e(  3 -  4) =    -13.48211  eV     2   --> B              
     e(  5 -  5) =    -13.45934  eV     1   --> B              
     e(  6 -  6) =    -13.37555  eV     1   --> A              
     e(  7 -  8) =    -13.35655  eV     2   --> A              
     e(  7 -  8) =    -13.35655  eV     2   --> B              
     e(  9 -  9) =    -13.30409  eV     1   --> A              
     e( 10 - 10) =    -13.30394  eV     1   --> B              
     e( 11 - 11) =     -2.49874  eV     1   --> A              
     e( 12 - 12) =     -0.50033  eV     1   --> B              
     e( 13 - 13) =      8.14623  eV     1   --> B              
     e( 14 - 14) =      8.59249  eV     1   --> A              
     e( 15 - 15) =      8.67006  eV     1   --> B              
     e( 16 - 16) =      9.79601  eV     1   --> A              
     e( 17 - 17) =      9.97834  eV     1   --> B              
     e( 18 - 18) =     10.15254  eV     1   --> A              
     e( 19 - 19) =     16.16852  eV     1   --> A              

 **************************************************************************

 **************************************************************************

                    xk=(   0.02698,   0.00000,   0.60093  )

     Band symmetry, C_2  (2)    point group:

     e(  1 -  1) =    -13.57075  eV     1   --> A              
     e(  2 -  2) =    -13.57054  eV     1   --> B              
     e(  3 -  3) =    -13.48213  eV     1   --> A              
     e(  4 -  4) =    -13.48195  eV     1   --> B              
     e(  5 -  5) =    -13.45933  eV     1   --> B              
     e(  6 -  6) =    -13.37555  eV     1   --> A              
     e(  7 -  7) =    -13.35660  eV     1   --> A              
     e(  8 -  8) =    -13.35648  eV     1   --> B              
     e(  9 -  9) =    -13.30416  eV     1   --> A              
     e( 10 - 10) =    -13.30384  eV     1   --> B              
     e( 11 - 11) =     -2.49689  eV     1   --> A              
     e( 12 - 12) =     -0.50006  eV     1   --> B              
     e( 13 - 13) =      8.07523  eV     1   --> B              
     e( 14 - 14) =      8.57764  eV     1   --> A              
     e( 15 - 15) =      8.73100  eV     1   --> B              
     e( 16 - 16) =      9.71737  eV     1   --> A              
     e( 17 - 17) =      9.99598  eV     1   --> B              
     e( 18 - 18) =     10.24952  eV     1   --> A              
     e( 19 - 19) =     16.15865  eV     1   --> A              

 **************************************************************************

 **************************************************************************

                    xk=(   0.03598,   0.00000,   0.60093  )

     Band symmetry, C_2  (2)    point group:

     e(  1 -  1) =    -13.57087  eV     1   --> A              
     e(  2 -  2) =    -13.57049  eV     1   --> B              
     e(  3 -  3) =    -13.48215  eV     1   --> A              
     e(  4 -  4) =    -13.48184  eV     1   --> B              
     e(  5 -  5) =    -13.45932  eV     1   --> B              
     e(  6 -  6) =    -13.37555  eV     1   --> A              
     e(  7 -  7) =    -13.35669  eV     1   --> A              
     e(  8 -  8) =    -13.35646  eV     1   --> B              
     e(  9 -  9) =    -13.30426  eV     1   --> A              
     e( 10 - 10) =    -13.30369  eV     1   --> B              
     e( 11 - 11) =     -2.49431  eV     1   --> A              
     e( 12 - 12) =     -0.49969  eV     1   --> B              
     e( 13 - 13) =      7.99503  eV     1   --> B              
     e( 14 - 14) =      8.55650  eV     1   --> A              
     e( 15 - 15) =      8.79680  eV     1   --> B              
     e( 16 - 16) =      9.64406  eV     1   --> A              
     e( 17 - 17) =     10.02101  eV     1   --> B              
     e( 18 - 18) =     10.34881  eV     1   --> A              
     e( 19 - 19) =     16.14496  eV     1   --> A              

 **************************************************************************

 **************************************************************************

                    xk=(   0.04497,   0.00000,   0.60093  )

     Band symmetry, C_2  (2)    point group:

     e(  1 -  1) =    -13.57102  eV     1   --> A              
     e(  2 -  2) =    -13.57043  eV     1   --> B              
     e(  3 -  3) =    -13.48219  eV     1   --> A              
     e(  4 -  4) =    -13.48169  eV     1   --> B              
     e(  5 -  5) =    -13.45931  eV     1   --> B              
     e(  6 -  6) =    -13.37555  eV     1   --> A              
     e(  7 -  7) =    -13.35679  eV     1   --> A              
     e(  8 -  8) =    -13.35644  eV     1   --> B              
     e(  9 -  9) =    -13.30438  eV     1   --> A              
     e( 10 - 10) =    -13.30350  eV     1   --> B              
     e( 11 - 11) =     -2.49098  eV     1   --> A              
     e( 12 - 12) =     -0.49922  eV     1   --> B              
     e( 13 - 13) =      7.90994  eV     1   --> B              
     e( 14 - 14) =      8.52885  eV     1   --> A              
     e( 15 - 15) =      8.86284  eV     1   --> B              
     e( 16 - 16) =      9.57666  eV     1   --> A              
     e( 17 - 17) =     10.05370  eV     1   --> B              
     e( 18 - 18) =     10.45008  eV     1   --> A              
     e( 19 - 19) =     16.12755  eV     1   --> A              

 **************************************************************************

 **************************************************************************

                    xk=(   0.05397,   0.00000,   0.60093  )

     Band symmetry, C_2  (2)    point group:

     e(  1 -  1) =    -13.57120  eV     1   --> A              
     e(  2 -  2) =    -13.57035  eV     1   --> B              
     e(  3 -  3) =    -13.48223  eV     1   --> A              
[...]

     Band symmetry, C_s (m)     point group:

     e(  1 -  1) =    -13.64292  eV     1   --> A''            
     e(  2 -  2) =    -13.62746  eV     1   --> A'             
     e(  3 -  3) =    -13.50906  eV     1   --> A'             
     e(  4 -  4) =    -13.50280  eV     1   --> A''            
     e(  5 -  5) =    -13.48528  eV     1   --> A'             
     e(  6 -  6) =    -13.35215  eV     1   --> A'             
     e(  7 -  7) =    -13.34099  eV     1   --> A''            
     e(  8 -  8) =    -13.33584  eV     1   --> A'             
     e(  9 -  9) =    -13.24145  eV     1   --> A'             
     e( 10 - 10) =    -13.22332  eV     1   --> A''            
     e( 11 - 11) =     -3.49480  eV     1   --> A'             
     e( 12 - 12) =      1.38745  eV     1   --> A'             
     e( 13 - 13) =      7.71529  eV     1   --> A'             
     e( 14 - 14) =      7.85467  eV     1   --> A''            
     e( 15 - 15) =      8.52670  eV     1   --> A'             
     e( 16 - 16) =     10.86871  eV     1   --> A'             
     e( 17 - 17) =     11.87185  eV     1   --> A'             
     e( 18 - 18) =     12.29775  eV     1   --> A''            
     e( 19 - 19) =     14.38212  eV     1   --> A'             

 **************************************************************************

 **************************************************************************

                    xk=(   0.09541,  -0.05508,   0.07345  )

     Band symmetry, C_s (m)     point group:

     e(  1 -  1) =    -13.64308  eV     1   --> A''            
     e(  2 -  2) =    -13.63001  eV     1   --> A'             
     e(  3 -  3) =    -13.50916  eV     1   --> A'             
     e(  4 -  4) =    -13.50396  eV     1   --> A''            
     e(  5 -  5) =    -13.48623  eV     1   --> A'             
     e(  6 -  6) =    -13.35121  eV     1   --> A'             
     e(  7 -  7) =    -13.34003  eV     1   --> A''            
     e(  8 -  8) =    -13.33577  eV     1   --> A'             
     e(  9 -  9) =    -13.23859  eV     1   --> A'             
     e( 10 - 10) =    -13.22326  eV     1   --> A''            
     e( 11 - 11) =     -3.51252  eV     1   --> A'             
     e( 12 - 12) =      1.42290  eV     1   --> A'             
     e( 13 - 13) =      7.75224  eV     1   --> A'             
     e( 14 - 14) =      7.88571  eV     1   --> A''            
     e( 15 - 15) =      8.45190  eV     1   --> A'             
     e( 16 - 16) =     11.00266  eV     1   --> A'             
     e( 17 - 17) =     11.86477  eV     1   --> A'             
     e( 18 - 18) =     12.27206  eV     1   --> A''            
     e( 19 - 19) =     14.44161  eV     1   --> A'             

 **************************************************************************

 **************************************************************************

                    xk=(   0.08673,  -0.05008,   0.06677  )

     Band symmetry, C_s (m)     point group:

     e(  1 -  1) =    -13.64323  eV     1   --> A''            
     e(  2 -  2) =    -13.63237  eV     1   --> A'             
     e(  3 -  3) =    -13.50927  eV     1   --> A'             
     e(  4 -  4) =    -13.50502  eV     1   --> A''            
     e(  5 -  5) =    -13.48708  eV     1   --> A'             
     e(  6 -  6) =    -13.35037  eV     1   --> A'             
     e(  7 -  7) =    -13.33914  eV     1   --> A''            
     e(  8 -  8) =    -13.33568  eV     1   --> A'             
     e(  9 -  9) =    -13.23595  eV     1   --> A'             
     e( 10 - 10) =    -13.22320  eV     1   --> A''            
     e( 11 - 11) =     -3.52875  eV     1   --> A'             
     e( 12 - 12) =      1.45620  eV     1   --> A'             
     e( 13 - 13) =      7.78646  eV     1   --> A'             
     e( 14 - 14) =      7.91475  eV     1   --> A''            
     e( 15 - 15) =      8.38155  eV     1   --> A'             
     e( 16 - 16) =     11.13060  eV     1   --> A'             
     e( 17 - 17) =     11.86125  eV     1   --> A'             
     e( 18 - 18) =     12.24823  eV     1   --> A''            
     e( 19 - 19) =     14.50323  eV     1   --> A'             

 **************************************************************************

 **************************************************************************

                    xk=(   0.07806,  -0.04507,   0.06009  )

     Band symmetry, C_s (m)     point group:

     e(  1 -  1) =    -13.64337  eV     1   --> A''            
     e(  2 -  2) =    -13.63452  eV     1   --> A'             
     e(  3 -  3) =    -13.50939  eV     1   --> A'             
     e(  4 -  4) =    -13.50600  eV     1   --> A''            
     e(  5 -  5) =    -13.48784  eV     1   --> A'             
     e(  6 -  6) =    -13.34963  eV     1   --> A'             
     e(  7 -  7) =    -13.33832  eV     1   --> A''            
     e(  8 -  8) =    -13.33557  eV     1   --> A'             
     e(  9 -  9) =    -13.23353  eV     1   --> A'             
     e( 10 - 10) =    -13.22315  eV     1   --> A''            
     e( 11 - 11) =     -3.54346  eV     1   --> A'             
     e( 12 - 12) =      1.48713  eV     1   --> A'             
     e( 13 - 13) =      7.81763  eV     1   --> A'             
     e( 14 - 14) =      7.94164  eV     1   --> A''            
     e( 15 - 15) =      8.31659  eV     1   --> A'             
     e( 16 - 16) =     11.24908  eV     1   --> A'             
     e( 17 - 17) =     11.86312  eV     1   --> A'             
     e( 18 - 18) =     12.22635  eV     1   --> A''            
     e( 19 - 19) =     14.56657  eV     1   --> A'             

 **************************************************************************

 **************************************************************************

                    xk=(   0.06939,  -0.04006,   0.05342  )

     Band symmetry, C_s (m)     point group:

     e(  1 -  1) =    -13.64349  eV     1   --> A''            
     e(  2 -  2) =    -13.63647  eV     1   --> A'             
     e(  3 -  3) =    -13.50953  eV     1   --> A'             
     e(  4 -  4) =    -13.50688  eV     1   --> A''            
     e(  5 -  5) =    -13.48850  eV     1   --> A'             
     e(  6 -  6) =    -13.34898  eV     1   --> A'             
     e(  7 -  7) =    -13.33759  eV     1   --> A''            
     e(  8 -  8) =    -13.33546  eV     1   --> A'             
     e(  9 -  9) =    -13.23134  eV     1   --> A'             
     e( 10 - 10) =    -13.22310  eV     1   --> A''            
     e( 11 - 11) =     -3.55665  eV     1   --> A'             
     e( 12 - 12) =      1.51548  eV     1   --> A'             
     e( 13 - 13) =      7.84541  eV     1   --> A'             
     e( 14 - 14) =      7.96620  eV     1   --> A''            
     e( 15 - 15) =      8.25783  eV     1   --> A'             
     e( 16 - 16) =     11.35393  eV     1   --> A'             
     e( 17 - 17) =     11.87293  eV     1   --> A'             
     e( 18 - 18) =     12.20650  eV     1   --> A''            
     e( 19 - 19) =     14.63114  eV     1   --> A'             

 **************************************************************************

 **************************************************************************

                    xk=(   0.06071,  -0.03505,   0.04674  )

     Band symmetry, C_s (m)     point group:

     e(  1 -  1) =    -13.64360  eV     1   --> A''            
     e(  2 -  2) =    -13.63820  eV     1   --> A'             
     e(  3 -  3) =    -13.50966  eV     1   --> A'             
     e(  4 -  4) =    -13.50766  eV     1   --> A''            
     e(  5 -  5) =    -13.48908  eV     1   --> A'             
     e(  6 -  6) =    -13.34842  eV     1   --> A'             
     e(  7 -  7) =    -13.33694  eV     1   --> A''            
     e(  8 -  8) =    -13.33534  eV     1   --> A'             
     e(  9 -  9) =    -13.22939  eV     1   --> A'             
     e( 10 - 10) =    -13.22305  eV     1   --> A''            
     e( 11 - 11) =     -3.56831  eV     1   --> A'             
     e( 12 - 12) =      1.54105  eV     1   --> A'             
     e( 13 - 13) =      7.86935  eV     1   --> A'             
     e( 14 - 14) =      7.98829  eV     1   --> A''            
     e( 15 - 15) =      8.20601  eV     1   --> A'             
     e( 16 - 16) =     11.44054  eV     1   --> A'             
     e( 17 - 17) =     11.89361  eV     1   --> A'             
     e( 18 - 18) =     12.18877  eV     1   --> A''            
     e( 19 - 19) =     14.69628  eV     1   --> A'             

 **************************************************************************

 **************************************************************************

                    xk=(   0.05204,  -0.03005,   0.04006  )

     Band symmetry, C_s (m)     point group:

     e(  1 -  1) =    -13.64369  eV     1   --> A''            
     e(  2 -  2) =    -13.63971  eV     1   --> A'             
     e(  3 -  3) =    -13.50980  eV     1   --> A'             
     e(  4 -  4) =    -13.50834  eV     1   --> A''            
     e(  5 -  5) =    -13.48956  eV     1   --> A'             
     e(  6 -  6) =    -13.34795  eV     1   --> A'             
     e(  7 -  7) =    -13.33637  eV     1   --> A''            
     e(  8 -  8) =    -13.33521  eV     1   --> A'             
     e(  9 -  9) =    -13.22769  eV     1   --> A'             
     e( 10 - 10) =    -13.22302  eV     1   --> A''            
     e( 11 - 11) =     -3.57843  eV     1   --> A'             
     e( 12 - 12) =      1.56364  eV     1   --> A'             
     e( 13 - 13) =      7.88897  eV     1   --> A'             
     e( 14 - 14) =      8.00776  eV     1   --> A''            
     e( 15 - 15) =      8.16188  eV     1   --> A'             
     e( 16 - 16) =     11.50552  eV     1   --> A'             
     e( 17 - 17) =     11.92682  eV     1   --> A'             
     e( 18 - 18) =     12.17321  eV     1   --> A''            
     e( 19 - 19) =     14.76107  eV     1   --> A'             

 **************************************************************************

 **************************************************************************

                    xk=(   0.04337,  -0.02504,   0.03339  )

     Band symmetry, C_s (m)     point group:

     e(  1 -  1) =    -13.64377  eV     1   --> A''            
     e(  2 -  2) =    -13.64100  eV     1   --> A'             
     e(  3 -  3) =    -13.50992  eV     1   --> A'             
     e(  4 -  4) =    -13.50892  eV     1   --> A''            
     e(  5 -  5) =    -13.48996  eV     1   --> A'             
     e(  6 -  6) =    -13.34756  eV     1   --> A'             
     e(  7 -  7) =    -13.33589  eV     1   --> A''            
     e(  8 -  8) =    -13.33510  eV     1   --> A'             
     e(  9 -  9) =    -13.22624  eV     1   --> A'             
     e( 10 - 10) =    -13.22299  eV     1   --> A''            
     e( 11 - 11) =     -3.58700  eV     1   --> A'             
     e( 12 - 12) =      1.58309  eV     1   --> A'             
     e( 13 - 13) =      7.90372  eV     1   --> A'             
     e( 14 - 14) =      8.02447  eV     1   --> A''            
     e( 15 - 15) =      8.12614  eV     1   --> A'             
     e( 16 - 16) =     11.54921  eV     1   --> A'             
     e( 17 - 17) =     11.97040  eV     1   --> A'             
     e( 18 - 18) =     12.15992  eV     1   --> A''            
     e( 19 - 19) =     14.82422  eV     1   --> A'             

 **************************************************************************

 **************************************************************************

                    xk=(   0.03469,  -0.02003,   0.02671  )

     Band symmetry, C_s (m)     point group:

     e(  1 -  1) =    -13.64383  eV     1   --> A''            
     e(  2 -  2) =    -13.64206  eV     1   --> A'             
     e(  3 -  3) =    -13.51003  eV     1   --> A'             
     e(  4 -  4) =    -13.50939  eV     1   --> A''            
     e(  5 -  5) =    -13.49028  eV     1   --> A'             
     e(  6 -  6) =    -13.34725  eV     1   --> A'             
     e(  7 -  7) =    -13.33549  eV     1   --> A''            
     e(  8 -  8) =    -13.33499  eV     1   --> A'             
     e(  9 -  9) =    -13.22505  eV     1   --> A'             
     e( 10 - 10) =    -13.22296  eV     1   --> A''            
     e( 11 - 11) =     -3.59402  eV     1   --> A'             
     e( 12 - 12) =      1.59923  eV     1   --> A'             
     e( 13 - 13) =      7.91328  eV     1   --> A'             
     e( 14 - 14) =      8.03831  eV     1   --> A''            
     e( 15 - 15) =      8.09925  eV     1   --> A'             
     e( 16 - 16) =     11.57600  eV     1   --> A'             
     e( 17 - 17) =     12.01815  eV     1   --> A'             
     e( 18 - 18) =     12.14895  eV     1   --> A''            
     e( 19 - 19) =     14.88338  eV     1   --> A'             

 **************************************************************************

 **************************************************************************

                    xk=(   0.02602,  -0.01502,   0.02003  )

     Band symmetry, C_s (m)     point group:

     e(  1 -  1) =    -13.64389  eV     1   --> A''            
     e(  2 -  2) =    -13.64288  eV     1   --> A'             
     e(  3 -  3) =    -13.51012  eV     1   --> A'             
     e(  4 -  4) =    -13.50977  eV     1   --> A''            
     e(  5 -  5) =    -13.49053  eV     1   --> A'             
     e(  6 -  6) =    -13.34702  eV     1   --> A'             
     e(  7 -  7) =    -13.33518  eV     1   --> A''            
     e(  8 -  8) =    -13.33490  eV     1   --> A'             
     e(  9 -  9) =    -13.22412  eV     1   --> A'             
     e( 10 - 10) =    -13.22294  eV     1   --> A''            
     e( 11 - 11) =     -3.59949  eV     1   --> A'             
     e( 12 - 12) =      1.61194  eV     1   --> A'             
     e( 13 - 13) =      7.91795  eV     1   --> A'             
     e( 14 - 14) =      8.04919  eV     1   --> A''            
     e( 15 - 15) =      8.08103  eV     1   --> A'             
     e( 16 - 16) =     11.59145  eV     1   --> A'             
     e( 17 - 17) =     12.06281  eV     1   --> A'             
     e( 18 - 18) =     12.14036  eV     1   --> A''            
     e( 19 - 19) =     14.91664  eV     1   --> A'             

 **************************************************************************

 **************************************************************************

                    xk=(   0.01735,  -0.01002,   0.01335  )

     Band symmetry, C_s (m)     point group:

     e(  1 -  1) =    -13.64392  eV     1   --> A''            
     e(  2 -  2) =    -13.64348  eV     1   --> A'             
     e(  3 -  3) =    -13.51019  eV     1   --> A'             
     e(  4 -  4) =    -13.51003  eV     1   --> A''            
     e(  5 -  5) =    -13.49071  eV     1   --> A'             
     e(  6 -  6) =    -13.34685  eV     1   --> A'             
     e(  7 -  7) =    -13.33496  eV     1   --> A''            
     e(  8 -  8) =    -13.33484  eV     1   --> A'             
     e(  9 -  9) =    -13.22345  eV     1   --> A'             
     e( 10 - 10) =    -13.22293  eV     1   --> A''            
     e( 11 - 11) =     -3.60339  eV     1   --> A'             
     e( 12 - 12) =      1.62109  eV     1   --> A'             
     e( 13 - 13) =      7.91902  eV     1   --> A'             
     e( 14 - 14) =      8.05701  eV     1   --> A''            
     e( 15 - 15) =      8.07022  eV     1   --> A'             
     e( 16 - 16) =     11.59990  eV     1   --> A'             
     e( 17 - 17) =     12.09852  eV     1   --> A'             
     e( 18 - 18) =     12.13419  eV     1   --> A''            
     e( 19 - 19) =     14.94527  eV     1   --> A'             

 **************************************************************************

 **************************************************************************

                    xk=(   0.00867,  -0.00501,   0.00668  )

     Band symmetry, C_s (m)     point group:

     e(  1 -  1) =    -13.64394  eV     1   --> A''            
     e(  2 -  2) =    -13.64383  eV     1   --> A'             
     e(  3 -  4) =    -13.51023  eV     2   --> A'             
     e(  3 -  4) =    -13.51023  eV     2   --> A''            
     e(  5 -  5) =    -13.49081  eV     1   --> A'             
     e(  6 -  6) =    -13.34675  eV     1   --> A'             
     e(  7 -  8) =    -13.33483  eV     2   --> A'             
     e(  7 -  8) =    -13.33483  eV     2   --> A''            
     e(  9 -  9) =    -13.22305  eV     1   --> A'             
     e( 10 - 10) =    -13.22292  eV     1   --> A''            
     e( 11 - 11) =     -3.60574  eV     1   --> A'             
     e( 12 - 12) =      1.62661  eV     1   --> A'             
     e( 13 - 13) =      7.91851  eV     1   --> A'             
     e( 14 - 14) =      8.06173  eV     1   --> A''            
     e( 15 - 15) =      8.06488  eV     1   --> A'             
     e( 16 - 16) =     11.60405  eV     1   --> A'             
     e( 17 - 17) =     12.12138  eV     1   --> A'             
     e( 18 - 18) =     12.13047  eV     1   --> A''            
     e( 19 - 19) =     14.97366  eV     1   --> A'             

 **************************************************************************

 **************************************************************************

                    xk=(   0.00000,   0.00000,   0.00000  )

     point group D_3d (-3m) 
     there are  6 classes
     the character table:

       E     2C3   3C2'  i     2S6   3s_d 
A_1g   1.00  1.00  1.00  1.00  1.00  1.00
A_2g   1.00  1.00 -1.00  1.00  1.00 -1.00
E_g    2.00 -1.00  0.00  2.00 -1.00  0.00
A_1u   1.00  1.00  1.00 -1.00 -1.00 -1.00
A_2u   1.00  1.00 -1.00 -1.00 -1.00  1.00
E_u    2.00 -1.00  0.00 -2.00  1.00  0.00

     the symmetry operations in each class and the name of the first element:

     E        1
                                                                 
     2C3      3    4
                                                                 
     3C2'     2    5    6
                                                                 
     i        7
                                                                 
     2S6      9   10
                                                                 
     3s_d     8   11   12
                                                                 

     Band symmetry, D_3d (-3m)  point group:

     e(  1 -  2) =    -13.64395  eV     2   --> E_g  L_3       
     e(  3 -  4) =    -13.51025  eV     2   --> E_u  L_3'      
     e(  5 -  5) =    -13.49084  eV     1   --> A_2u L_2'      
     e(  6 -  6) =    -13.34672  eV     1   --> A_1g L_1       
     e(  7 -  8) =    -13.33478  eV     2   --> E_g  L_3       
     e(  9 - 10) =    -13.22291  eV     2   --> E_u  L_3'      
     e( 11 - 11) =     -3.60652  eV     1   --> A_1g L_1       
     e( 12 - 12) =      1.62846  eV     1   --> A_2u L_2'      
     e( 13 - 13) =      7.91812  eV     1   --> A_1g L_1       
     e( 14 - 15) =      8.06331  eV     2   --> E_g  L_3       
     e( 16 - 16) =     11.60529  eV     1   --> A_2u L_2'      
     e( 17 - 18) =     12.12923  eV     2   --> E_u  L_3'      
     e( 19 - 19) =     14.98691  eV     1   --> A_2u L_2'      

 **************************************************************************
 
     BANDS        :     18.96s CPU     20.29s WALL

 
   This run was terminated on:  17:51: 8  29Nov2020            

=------------------------------------------------------------------------------=
   JOB DONE.
=------------------------------------------------------------------------------=
