mpijob CMD    : mpirun -f /tmp/mpiexec.params.k050801.12250
mpijob PARAMS : -d
        /home/k0508/k050801/research/dft/qeirreps/v1/qeirreps/reference/Bi_nonsoc
        r1i0n1 24 omplace -nt 1
        "/home/k0508/k050801/research/dft/qe-6.2/bin/pw.x"

SGI MPT Placement option
--------------------------
omplace -nt 1

Node   MPI
------------
r1i0n1 24


     Program PWSCF v.6.2 (svn rev. 13949:13950) starts on  8Apr2020 at 15: 1:24 

     This program is part of the open-source Quantum ESPRESSO suite
     for quantum simulation of materials; please cite
         "P. Giannozzi et al., J. Phys.:Condens. Matter 21 395502 (2009);
         "P. Giannozzi et al., J. Phys.:Condens. Matter 29 465901 (2017);
          URL http://www.quantum-espresso.org", 
     in publications or presentations arising from this work. More details at
     http://www.quantum-espresso.org/quote

     Parallel version (MPI), running on    24 processors

     MPI processes distributed on     1 nodes
     R & G space division:  proc/nbgrp/npool/nimage =      24
     Waiting for input...
     Reading input from standard input

     Current dimensions of program PWSCF are:
     Max number of different atomic species (ntypx) = 10
     Max number of k-points (npk) =  40000
     Max angular momentum in pseudopotentials (lmaxx) =  3

     Subspace diagonalization in iterative solution of the eigenvalue problem:
     a serial algorithm will be used

 
     Parallelization info
     --------------------
     sticks:   dense  smooth     PW     G-vecs:    dense   smooth      PW
     Min          91      91     26                 2787     2787     435
     Max          92      92     27                 2793     2793     437
     Sum        2197    2197    641                66925    66925   10459
 


     bravais-lattice index     =            0
     lattice parameter (alat)  =       9.0662  a.u.
     unit-cell volume          =     495.7043 (a.u.)^3
     number of atoms/cell      =            2
     number of atomic types    =            1
     number of electrons       =        30.00
     number of Kohn-Sham states=           19
     kinetic-energy cutoff     =     100.0000  Ry
     charge density cutoff     =     400.0000  Ry
     convergence threshold     =      1.0E-08
     mixing beta               =       0.3000
     number of iterations used =            8  plain     mixing
     Exchange-correlation      = PBE ( 1  4  3  4 0 0)

     celldm(1)=   9.066241  celldm(2)=   0.000000  celldm(3)=   0.000000
     celldm(4)=   0.000000  celldm(5)=   0.000000  celldm(6)=   0.000000

     crystal axes: (cart. coord. in units of alat)
               a(1) = (   0.480401   0.277359   0.832038 )  
               a(2) = (  -0.480401   0.277359   0.832038 )  
               a(3) = (   0.000000  -0.554719   0.832038 )  

     reciprocal axes: (cart. coord. in units 2 pi/alat)
               b(1) = (  1.040798  0.600905  0.400623 )  
               b(2) = ( -1.040798  0.600905  0.400623 )  
               b(3) = (  0.000000 -1.201810  0.400623 )  


     PseudoPot. # 1 for Bi read from file:
     ../../pseudo/nonsoc/Bi.upf
     MD5 check sum: 200c63f77f1a5690b65e64056759e8a3
     Pseudo is Norm-conserving + core correction, Zval = 15.0
     Generated using ONCVPSP code by D. R. Hamann
     Using radial grid of 1490 points,  6 beta functions with: 
                l(1) =   0
                l(2) =   0
                l(3) =   1
                l(4) =   1
                l(5) =   2
                l(6) =   2

     atomic species   valence    mass     pseudopotential
        Bi            15.00   208.98040     Bi( 1.00)

     12 Sym. Ops., with inversion, found



   Cartesian axes

     site n.     atom                  positions (alat units)
         1           Bi  tau(   1) = (   0.0000000   0.0000000   0.6670014  )
         2           Bi  tau(   2) = (   0.4804007   0.2773595   0.1650364  )

     number of k points=    65  Methfessel-Paxton smearing, width (Ry)=  0.0100
                       cart. coord. in units 2pi/alat
        k(    1) = (   0.0000000   0.0000000   0.0000000), wk =   0.0039062
        k(    2) = (   0.0000000  -0.1502262   0.0500779), wk =   0.0234375
        k(    3) = (   0.0000000  -0.3004525   0.1001557), wk =   0.0234375
        k(    4) = (   0.0000000  -0.4506787   0.1502336), wk =   0.0234375
        k(    5) = (   0.0000000   0.6009049  -0.2003114), wk =   0.0117188
        k(    6) = (  -0.1300997  -0.0751131   0.1001557), wk =   0.0234375
        k(    7) = (  -0.1300997  -0.2253393   0.1502336), wk =   0.0468750
        k(    8) = (  -0.1300997  -0.3755656   0.2003114), wk =   0.0468750
        k(    9) = (  -0.1300997   0.6760180  -0.1502336), wk =   0.0468750
        k(   10) = (  -0.1300997   0.5257918  -0.1001557), wk =   0.0468750
        k(   11) = (  -0.1300997   0.3755656  -0.0500779), wk =   0.0468750
        k(   12) = (  -0.1300997   0.2253393   0.0000000), wk =   0.0234375
        k(   13) = (  -0.2601995  -0.1502262   0.2003114), wk =   0.0234375
        k(   14) = (  -0.2601995  -0.3004525   0.2503893), wk =   0.0468750
        k(   15) = (  -0.2601995   0.7511312  -0.1001557), wk =   0.0468750
        k(   16) = (  -0.2601995   0.6009049  -0.0500779), wk =   0.0468750
        k(   17) = (  -0.2601995   0.4506787   0.0000000), wk =   0.0234375
        k(   18) = (  -0.3902992  -0.2253393   0.3004671), wk =   0.0234375
        k(   19) = (  -0.3902992   0.8262443  -0.0500779), wk =   0.0468750
        k(   20) = (  -0.3902992   0.6760180   0.0000000), wk =   0.0234375
        k(   21) = (   0.5203989   0.3004525  -0.4006228), wk =   0.0117188
        k(   22) = (   0.0000000   0.0000000   0.1502336), wk =   0.0078125
        k(   23) = (   0.0000000  -0.1502262   0.2003114), wk =   0.0234375
        k(   24) = (   0.0000000  -0.3004525   0.2503893), wk =   0.0234375
        k(   25) = (   0.0000000   0.7511312  -0.1001557), wk =   0.0234375
        k(   26) = (   0.0000000   0.6009049  -0.0500779), wk =   0.0234375
        k(   27) = (   0.0000000   0.4506787   0.0000000), wk =   0.0234375
        k(   28) = (   0.0000000   0.3004525   0.0500779), wk =   0.0234375
        k(   29) = (  -0.1300997  -0.0751131   0.2503893), wk =   0.0234375
        k(   30) = (  -0.1300997  -0.2253393   0.3004671), wk =   0.0468750
        k(   31) = (  -0.1300997   0.8262443  -0.0500779), wk =   0.0468750
        k(   32) = (  -0.1300997   0.6760180   0.0000000), wk =   0.0468750
        k(   33) = (  -0.1300997   0.5257918   0.0500779), wk =   0.0468750
        k(   34) = (  -0.1300997   0.3755656   0.1001557), wk =   0.0468750
        k(   35) = (  -0.2601995  -0.1502262   0.3505450), wk =   0.0234375
        k(   36) = (  -0.2601995   0.9013574   0.0000000), wk =   0.0468750
        k(   37) = (  -0.2601995   0.7511312   0.0500779), wk =   0.0468750
        k(   38) = (  -0.2601995   0.6009049   0.1001557), wk =   0.0468750
        k(   39) = (  -0.2601995   0.4506787   0.1502336), wk =   0.0468750
        k(   40) = (   0.6504987   0.3755656  -0.3505450), wk =   0.0234375
        k(   41) = (   0.6504987   0.2253393  -0.3004671), wk =   0.0468750
        k(   42) = (   0.6504987   0.0751131  -0.2503893), wk =   0.0468750
        k(   43) = (   0.6504987  -0.0751131  -0.2003114), wk =   0.0234375
        k(   44) = (   0.5203989   0.3004525  -0.2503893), wk =   0.0234375
        k(   45) = (   0.5203989   0.1502262  -0.2003114), wk =   0.0468750
        k(   46) = (   0.3902992   0.2253393  -0.1502336), wk =   0.0234375
        k(   47) = (   0.0000000   0.0000000   0.3004671), wk =   0.0078125
        k(   48) = (   0.0000000  -0.1502262   0.3505450), wk =   0.0234375
        k(   49) = (   0.0000000   0.9013574   0.0000000), wk =   0.0234375
        k(   50) = (   0.0000000   0.7511312   0.0500779), wk =   0.0234375
        k(   51) = (   0.0000000   0.6009049   0.1001557), wk =   0.0234375
        k(   52) = (  -0.1300997  -0.0751131   0.4006228), wk =   0.0234375
        k(   53) = (  -0.1300997   0.9764705   0.0500779), wk =   0.0468750
        k(   54) = (  -0.1300997   0.8262443   0.1001557), wk =   0.0468750
        k(   55) = (  -0.1300997   0.6760180   0.1502336), wk =   0.0468750
        k(   56) = (   0.7805984   0.4506787  -0.3004671), wk =   0.0234375
        k(   57) = (   0.7805984   0.3004525  -0.2503893), wk =   0.0468750
        k(   58) = (   0.7805984   0.1502262  -0.2003114), wk =   0.0234375
        k(   59) = (   0.6504987   0.3755656  -0.2003114), wk =   0.0234375
        k(   60) = (   0.0000000   0.0000000   0.4507007), wk =   0.0078125
        k(   61) = (   0.0000000   1.0515836   0.1001557), wk =   0.0234375
        k(   62) = (   0.0000000   0.9013574   0.1502336), wk =   0.0234375
        k(   63) = (   0.9106981   0.5257918  -0.2503893), wk =   0.0234375
        k(   64) = (   0.9106981   0.3755656  -0.2003114), wk =   0.0234375
        k(   65) = (   0.0000000   0.0000000  -0.6009342), wk =   0.0039062

     Dense  grid:    66925 G-vectors     FFT dimensions: (  60,  60,  60)

     Estimated max dynamical RAM per process >      12.15 MB

     Estimated total dynamical RAM >     291.53 MB

     Initial potential from superposition of free atoms

     starting charge   29.99830, renormalised to   30.00000
     Starting wfc are   18 randomized atomic wfcs +    1 random wfc

     total cpu time spent up to now is        4.2 secs

     Self-consistent Calculation

     iteration #  1     ecut=   100.00 Ry     beta= 0.30
     Davidson diagonalization with overlap
     ethr =  1.00E-02,  avg # of iterations =  4.2

     Threshold (ethr) on eigenvalues was too large:
     Diagonalizing with lowered threshold

     Davidson diagonalization with overlap
     ethr =  2.01E-05,  avg # of iterations =  3.8

     total cpu time spent up to now is        8.3 secs

     total energy              =    -328.20557846 Ry
     Harris-Foulkes estimate   =    -328.20587795 Ry
     estimated scf accuracy    <       0.00585834 Ry

     iteration #  2     ecut=   100.00 Ry     beta= 0.30
     Davidson diagonalization with overlap
     ethr =  1.95E-05,  avg # of iterations =  1.0

     total cpu time spent up to now is        9.7 secs

     total energy              =    -328.20553048 Ry
     Harris-Foulkes estimate   =    -328.20565066 Ry
     estimated scf accuracy    <       0.00259850 Ry

     iteration #  3     ecut=   100.00 Ry     beta= 0.30
     Davidson diagonalization with overlap
     ethr =  8.66E-06,  avg # of iterations =  1.1

     total cpu time spent up to now is       11.1 secs

     total energy              =    -328.20571805 Ry
     Harris-Foulkes estimate   =    -328.20573822 Ry
     estimated scf accuracy    <       0.00010292 Ry

     iteration #  4     ecut=   100.00 Ry     beta= 0.30
     Davidson diagonalization with overlap
     ethr =  3.43E-07,  avg # of iterations =  2.1

     total cpu time spent up to now is       12.9 secs

     total energy              =    -328.20573746 Ry
     Harris-Foulkes estimate   =    -328.20573563 Ry
     estimated scf accuracy    <       0.00001754 Ry

     iteration #  5     ecut=   100.00 Ry     beta= 0.30
     Davidson diagonalization with overlap
     ethr =  5.85E-08,  avg # of iterations =  1.1

     total cpu time spent up to now is       14.3 secs

     total energy              =    -328.20573861 Ry
     Harris-Foulkes estimate   =    -328.20573874 Ry
     estimated scf accuracy    <       0.00000116 Ry

     iteration #  6     ecut=   100.00 Ry     beta= 0.30
     Davidson diagonalization with overlap
     ethr =  3.87E-09,  avg # of iterations =  2.0

     total cpu time spent up to now is       16.2 secs

     total energy              =    -328.20573870 Ry
     Harris-Foulkes estimate   =    -328.20573907 Ry
     estimated scf accuracy    <       0.00000051 Ry

     iteration #  7     ecut=   100.00 Ry     beta= 0.30
     Davidson diagonalization with overlap
     ethr =  1.71E-09,  avg # of iterations =  2.0

     total cpu time spent up to now is       18.0 secs

     total energy              =    -328.20573884 Ry
     Harris-Foulkes estimate   =    -328.20573890 Ry
     estimated scf accuracy    <       0.00000010 Ry

     iteration #  8     ecut=   100.00 Ry     beta= 0.30
     Davidson diagonalization with overlap
     ethr =  3.37E-10,  avg # of iterations =  2.0

     total cpu time spent up to now is       19.9 secs

     End of self-consistent calculation

          k = 0.0000 0.0000 0.0000 (  8383 PWs)   bands (ev):

   -13.6436 -13.6436 -13.5099 -13.5099 -13.4905 -13.3464 -13.3344 -13.3344
   -13.2226 -13.2226  -3.6065   1.6285   7.9182   8.0633   8.0633  11.6053
    12.1292  12.1292  15.0324

          k = 0.0000-0.1502 0.0501 (  8368 PWs)   bands (ev):

   -13.6344 -13.6310 -13.5056 -13.5021 -13.4839 -13.3529 -13.3411 -13.3384
   -13.2363 -13.2323  -3.4681   1.3263   7.9537   8.0473   8.0752  11.3325
    11.5770  11.8175  14.4085

          k = 0.0000-0.3005 0.1002 (  8390 PWs)   bands (ev):

   -13.6097 -13.5951 -13.4956 -13.4806 -13.4640 -13.3748 -13.3600 -13.3468
   -13.2733 -13.2581  -3.0610   0.5528   7.9118   8.0263   8.2760  10.3371
    10.9539  11.1534  14.5396

          k = 0.0000-0.4507 0.1502 (  8389 PWs)   bands (ev):

   -13.5798 -13.5427 -13.4855 -13.4509 -13.4378 -13.4068 -13.3874 -13.3576
   -13.3207 -13.2887  -2.4192  -0.4225   7.9129   8.0335   8.5915   9.5097
    10.2406  10.5762  15.5483

          k = 0.0000 0.6009-0.2003 (  8404 PWs)   bands (ev):

   -13.5649 -13.4992 -13.4801 -13.4591 -13.4258 -13.4115 -13.3867 -13.3818
   -13.3447 -13.3039  -1.8162  -1.1557   7.9440   8.0469   8.9760   8.9911
     9.8866  10.3512  16.7619

          k =-0.1301-0.0751 0.1002 (  8355 PWs)   bands (ev):

   -13.6420 -13.6184 -13.5086 -13.4985 -13.4815 -13.3552 -13.3440 -13.3356
   -13.2509 -13.2232  -3.4327   1.2703   7.5906   7.7513   8.7638  10.4608
    11.9035  12.3851  14.2194

          k =-0.1301-0.2253 0.1502 (  8374 PWs)   bands (ev):

   -13.6298 -13.5874 -13.5014 -13.4861 -13.4650 -13.3726 -13.3538 -13.3421
   -13.2839 -13.2356  -3.1288   0.7408   7.3286   7.5028   8.8443  10.0062
    11.8821  12.0411  13.8944

          k =-0.1301-0.3756 0.2003 (  8387 PWs)   bands (ev):

   -13.6018 -13.5470 -13.4829 -13.4739 -13.4373 -13.4030 -13.3664 -13.3580
   -13.3221 -13.2649  -2.5795  -0.0948   7.2076   7.3259   8.3065  10.3092
    11.2273  11.6012  14.3952

          k =-0.1301 0.6760-0.1502 (  8375 PWs)   bands (ev):

   -13.5783 -13.5053 -13.4757 -13.4536 -13.4333 -13.4088 -13.3955 -13.3682
   -13.3486 -13.2898  -1.8766  -0.9770   6.9348   7.5121   8.1835  10.2217
    10.5633  11.5370  15.7988

          k =-0.1301 0.5258-0.1002 (  8397 PWs)   bands (ev):

   -13.5859 -13.4979 -13.4793 -13.4587 -13.4342 -13.4085 -13.3926 -13.3701
   -13.3474 -13.2825  -2.0532  -0.7783   6.7755   7.9370   8.4255   9.9201
    10.0534  11.9468  15.5260

          k =-0.1301 0.3756-0.0501 (  8393 PWs)   bands (ev):

   -13.6109 -13.5506 -13.4900 -13.4735 -13.4369 -13.4049 -13.3669 -13.3523
   -13.3152 -13.2562  -2.7414   0.1199   6.9082   8.3436   8.6269   9.7806
    10.1558  12.3766  14.4282

          k =-0.1301 0.2253 0.0000 (  8384 PWs)   bands (ev):

   -13.6302 -13.5995 -13.5003 -13.4922 -13.4675 -13.3708 -13.3483 -13.3436
   -13.2695 -13.2359  -3.2323   0.8957   7.3619   8.3222   8.3918  10.4305
    10.8297  12.3607  14.0702

          k =-0.2602-0.1502 0.2003 (  8374 PWs)   bands (ev):

   -13.6381 -13.5598 -13.5106 -13.4703 -13.4561 -13.3811 -13.3673 -13.3343
   -13.3145 -13.2249  -2.9432   0.5935   6.7644   7.1394   7.8398  11.1745
    11.9636  12.9905  13.9100

          k =-0.2602-0.3005 0.2504 (  8368 PWs)   bands (ev):

   -13.6267 -13.5295 -13.5040 -13.4601 -13.4368 -13.4009 -13.3764 -13.3476
   -13.3377 -13.2365  -2.5260   0.0967   6.2550   6.8758   7.2644  11.9889
    12.2741  12.7570  13.7430

          k =-0.2602 0.7511-0.1002 (  8370 PWs)   bands (ev):

   -13.6046 -13.5100 -13.4800 -13.4592 -13.4292 -13.4096 -13.3860 -13.3666
   -13.3498 -13.2611  -1.9313  -0.6303   5.7816   6.9163   7.2505  11.7746
    11.9413  13.2419  14.0571

          k =-0.2602 0.6009-0.0501 (  8368 PWs)   bands (ev):

   -13.5945 -13.4913 -13.4671 -13.4531 -13.4392 -13.4220 -13.3898 -13.3673
   -13.3573 -13.2746  -1.5366  -1.1201   5.6586   7.3161   7.5657  10.9831
    11.2286  13.6975  15.4422

          k =-0.2602 0.4507 0.0000 (  8374 PWs)   bands (ev):

   -13.6033 -13.4979 -13.4769 -13.4608 -13.4461 -13.4029 -13.3925 -13.3611
   -13.3498 -13.2655  -2.1974  -0.4786   6.0327   7.9635   8.1268  10.2961
    10.3616  13.4701  14.7718

          k =-0.3903-0.2253 0.3005 (  8359 PWs)   bands (ev):

   -13.6340 -13.5149 -13.5137 -13.4394 -13.4370 -13.3979 -13.3931 -13.3670
   -13.3315 -13.2266  -2.2864   0.0252   5.4958   6.6457   6.6883  11.7259
    13.6747  13.8283  14.3317

          k =-0.3903 0.8262-0.0501 (  8360 PWs)   bands (ev):

   -13.6250 -13.5116 -13.5049 -13.4394 -13.4233 -13.4100 -13.3913 -13.3755
   -13.3369 -13.2367  -1.9251  -0.3387   5.0501   6.5605   6.6478  12.0055
    13.2675  13.9946  14.9317

          k =-0.3903 0.6760 0.0000 (  8366 PWs)   bands (ev):

   -13.6079 -13.5095 -13.4781 -13.4464 -13.4400 -13.4059 -13.3814 -13.3798
   -13.3481 -13.2580  -1.5334  -0.8908   5.0706   6.8264   6.9109  12.2075
    12.2651  13.9140  14.9245

          k = 0.5204 0.3005-0.4006 (  8330 PWs)   bands (ev):

   -13.6323 -13.5153 -13.5113 -13.4258 -13.4173 -13.4130 -13.4019 -13.3795
   -13.3305 -13.2274  -1.9105  -0.2299   4.8077   6.4278   6.4638  11.6126
    14.0104  14.5709  15.6742

          k = 0.0000 0.0000 0.1502 (  8349 PWs)   bands (ev):

   -13.6347 -13.6347 -13.5061 -13.5061 -13.4868 -13.3497 -13.3375 -13.3375
   -13.2324 -13.2324  -3.4972   1.3450   7.9902   8.1077   8.1077  11.2864
    11.7581  11.7581  14.3671

          k = 0.0000-0.1502 0.2003 (  8362 PWs)   bands (ev):

   -13.6272 -13.6119 -13.4988 -13.4977 -13.4788 -13.3572 -13.3449 -13.3437
   -13.2574 -13.2403  -3.2900   0.9453   7.2815   8.4070   8.6383  10.3946
    10.9164  12.3803  14.4435

          k = 0.0000-0.3005 0.2504 (  8380 PWs)   bands (ev):

   -13.5968 -13.5830 -13.4852 -13.4787 -13.4621 -13.3755 -13.3611 -13.3556
   -13.2873 -13.2723  -2.8257   0.2069   6.7815   8.3928   9.1501   9.4063
    10.4369  12.3575  14.6545

          k = 0.0000 0.7511-0.1002 (  8370 PWs)   bands (ev):

   -13.5659 -13.5488 -13.4808 -13.4522 -13.4364 -13.4059 -13.3850 -13.3608
   -13.3178 -13.3037  -2.1595  -0.6698   6.6945   8.0286   8.5131   9.7154
    10.5258  11.7164  15.8739

          k = 0.0000 0.6009-0.0501 (  8394 PWs)   bands (ev):

   -13.5771 -13.5016 -13.4865 -13.4538 -13.4243 -13.4117 -13.3910 -13.3773
   -13.3433 -13.2906  -1.8636  -0.9969   7.0104   7.6527   7.9523  10.2491
    10.9670  11.0546  15.2724

          k = 0.0000 0.4507 0.0000 (  8396 PWs)   bands (ev):

   -13.6057 -13.5302 -13.4974 -13.4476 -13.4402 -13.4047 -13.3894 -13.3512
   -13.3308 -13.2600  -2.5332  -0.1510   7.4641   7.4952   7.7962  10.4608
    10.9566  11.5986  14.1675

          k = 0.0000 0.3005 0.0501 (  8364 PWs)   bands (ev):

   -13.6311 -13.5809 -13.5058 -13.4775 -13.4615 -13.3771 -13.3622 -13.3382
   -13.2896 -13.2336  -3.1018   0.7118   7.4457   7.5067   8.5672  10.1094
    11.5788  12.2329  13.8232

          k =-0.1301-0.0751 0.2504 (  8368 PWs)   bands (ev):

   -13.6322 -13.5941 -13.5048 -13.4894 -13.4732 -13.3625 -13.3511 -13.3384
   -13.2783 -13.2337  -3.1900   0.7907   7.3067   7.6118   9.0668   9.9050
    11.8520  12.1798  14.0331

          k =-0.1301-0.2253 0.3005 (  8365 PWs)   bands (ev):

   -13.6205 -13.5658 -13.4983 -13.4769 -13.4591 -13.3764 -13.3614 -13.3441
   -13.3089 -13.2457  -2.8376   0.3216   6.5824   7.4645   8.4657  10.5123
    11.5072  12.7834  14.1292

          k =-0.1301 0.8262-0.0501 (  8374 PWs)   bands (ev):

   -13.5948 -13.5431 -13.4801 -13.4721 -13.4367 -13.3991 -13.3680 -13.3597
   -13.3303 -13.2728  -2.2724  -0.3703   6.1923   6.8280   8.6387  10.1039
    11.9462  12.9208  14.4666

          k =-0.1301 0.6760 0.0000 (  8375 PWs)   bands (ev):

   -13.5846 -13.5168 -13.4816 -13.4500 -13.4281 -13.4088 -13.3950 -13.3648
   -13.3429 -13.2840  -1.6987  -1.0070   6.2802   6.3794   8.7247   9.7947
    12.3305  12.5352  15.3782

          k =-0.1301 0.5258 0.0501 (  8384 PWs)   bands (ev):

   -13.6032 -13.4991 -13.4877 -13.4570 -13.4313 -13.4100 -13.3876 -13.3742
   -13.3429 -13.2636  -2.1183  -0.5358   6.2897   6.8411   8.3000  10.2365
    11.6301  12.8435  14.3902

          k =-0.1301 0.3756 0.1002 (  8362 PWs)   bands (ev):

   -13.6226 -13.5412 -13.4994 -13.4671 -13.4371 -13.4041 -13.3715 -13.3457
   -13.3259 -13.2424  -2.7206   0.2031   6.6577   7.6625   7.8669  10.8253
    11.0642  12.7083  13.9498

          k =-0.2602-0.1502 0.3505 (  8363 PWs)   bands (ev):

   -13.6281 -13.5442 -13.5074 -13.4632 -13.4504 -13.3835 -13.3723 -13.3367
   -13.3350 -13.2356  -2.6212   0.1917   6.1591   7.0137   7.3863  11.7904
    12.5040  12.8871  13.9056

          k =-0.2602 0.9014 0.0000 (  8369 PWs)   bands (ev):

   -13.6182 -13.5307 -13.5014 -13.4581 -13.4338 -13.3977 -13.3775 -13.3520
   -13.3403 -13.2460  -2.2133  -0.1934   5.5968   6.3065   7.6054  11.6110
    12.8590  13.6321  14.3558

          k =-0.2602 0.7511 0.0501 (  8358 PWs)   bands (ev):

   -13.6025 -13.5228 -13.4792 -13.4643 -13.4212 -13.4094 -13.3827 -13.3645
   -13.3441 -13.2646  -1.6943  -0.7650   5.3777   5.9505   8.1233  10.8052
    13.3377  14.1764  14.3825

          k =-0.2602 0.6009 0.1002 (  8378 PWs)   bands (ev):

   -13.5999 -13.5005 -13.4712 -13.4510 -13.4410 -13.4135 -13.3877 -13.3718
   -13.3500 -13.2691  -1.5578  -0.9986   5.5095   6.2701   8.5019  10.0609
    12.7876  13.9555  15.1372

          k =-0.2602 0.4507 0.1502 (  8381 PWs)   bands (ev):

   -13.6041 -13.5010 -13.4771 -13.4605 -13.4405 -13.4061 -13.3897 -13.3640
   -13.3504 -13.2630  -2.1250  -0.5211   6.1260   7.1052   8.0879  10.2957
    11.6743  13.0361  14.3979

          k = 0.6505 0.3756-0.3505 (  8365 PWs)   bands (ev):

   -13.6247 -13.5243 -13.5104 -13.4398 -13.4317 -13.3982 -13.3917 -13.3631
   -13.3339 -13.2371  -2.0241  -0.2357   5.0150   6.6400   6.6984  11.8595
    13.4744  14.0561  15.0224

          k = 0.6505 0.2253-0.3005 (  8371 PWs)   bands (ev):

   -13.6180 -13.5189 -13.5026 -13.4415 -13.4212 -13.4080 -13.3941 -13.3670
   -13.3383 -13.2451  -1.7777  -0.5043   4.9378   6.0800   7.2877  11.8154
    12.8917  14.5778  15.2757

          k = 0.6505 0.0751-0.2504 (  8362 PWs)   bands (ev):

   -13.6055 -13.5072 -13.4761 -13.4483 -13.4397 -13.4079 -13.3857 -13.3755
   -13.3477 -13.2616  -1.5453  -0.9166   5.2950   6.1015   7.9513  10.7811
    13.3312  14.1850  14.4812

          k = 0.6505-0.0751-0.2003 (  8390 PWs)   bands (ev):

   -13.5924 -13.4867 -13.4660 -13.4532 -13.4321 -13.4320 -13.3909 -13.3661
   -13.3608 -13.2763  -1.5078  -1.1924   5.9489   6.8739   8.2519   9.9512
    12.1367  12.8996  15.5870

          k = 0.5204 0.3005-0.2504 (  8374 PWs)   bands (ev):

   -13.6242 -13.5111 -13.5097 -13.4308 -13.4185 -13.4126 -13.4010 -13.3767
   -13.3330 -13.2370  -1.9171  -0.3566   5.0772   6.6131   6.6182  11.7860
    13.4271  13.9996  14.8294

          k = 0.5204 0.1502-0.2003 (  8362 PWs)   bands (ev):

   -13.6191 -13.5055 -13.4975 -13.4463 -13.4275 -13.4111 -13.3875 -13.3779
   -13.3387 -13.2443  -2.0613  -0.3586   5.6428   6.3628   7.3726  11.5472
    12.7669  13.4461  14.3107

          k = 0.3903 0.2253-0.1502 (  8367 PWs)   bands (ev):

   -13.6269 -13.5176 -13.5087 -13.4430 -13.4414 -13.4010 -13.3916 -13.3570
   -13.3334 -13.2356  -2.4798   0.0391   6.3969   6.9369   7.0504  11.7601
    12.2213  12.8491  13.6487

          k = 0.0000 0.0000 0.3005 (  8376 PWs)   bands (ev):

   -13.6113 -13.6113 -13.4965 -13.4965 -13.4768 -13.3587 -13.3452 -13.3452
   -13.2583 -13.2583  -3.1868   0.6539   8.1127   8.2457   8.2457  10.6729
    10.9955  10.9955  14.5001

          k = 0.0000-0.1502 0.3505 (  8356 PWs)   bands (ev):

   -13.6084 -13.5844 -13.4902 -13.4879 -13.4692 -13.3659 -13.3526 -13.3500
   -13.2875 -13.2616  -2.9315   0.2959   6.8747   8.6154   9.0672   9.6521
    10.2659  12.4659  14.7109

          k = 0.0000 0.9014 0.0000 (  8362 PWs)   bands (ev):

   -13.5856 -13.5681 -13.4808 -13.4735 -13.4573 -13.3785 -13.3634 -13.3589
   -13.3036 -13.2872  -2.4526  -0.2218   5.9728   8.0982   8.4266  10.1860
    10.6710  13.5266  15.2038

          k = 0.0000 0.7511 0.0501 (  8389 PWs)   bands (ev):

   -13.5768 -13.5468 -13.4876 -13.4498 -13.4347 -13.4031 -13.3844 -13.3560
   -13.3253 -13.2918  -1.8721  -0.7880   5.6382   7.4494   7.6533  10.9169
    11.4332  13.5786  15.1158

          k = 0.0000 0.6009 0.1002 (  8374 PWs)   bands (ev):

   -13.6026 -13.5062 -13.4996 -13.4423 -13.4212 -13.4121 -13.3970 -13.3742
   -13.3387 -13.2621  -1.9127  -0.6653   5.8510   7.0409   7.1488  11.4717
    12.1956  12.9881  13.9157

          k =-0.1301-0.0751 0.4006 (  8359 PWs)   bands (ev):

   -13.6083 -13.5700 -13.4955 -13.4799 -13.4632 -13.3710 -13.3586 -13.3456
   -13.3054 -13.2601  -2.7928   0.0986   7.1179   7.6758   8.5793  10.2177
    11.5275  11.5996  14.3676

          k =-0.1301 0.9765 0.0501 (  8353 PWs)   bands (ev):

   -13.6001 -13.5561 -13.4902 -13.4730 -13.4530 -13.3798 -13.3643 -13.3498
   -13.3213 -13.2690  -2.4415  -0.2079   6.1432   7.0463   8.7498  10.0934
    11.9550  13.0522  14.5676

          k =-0.1301 0.8262 0.1002 (  8359 PWs)   bands (ev):

   -13.5889 -13.5496 -13.4817 -13.4712 -13.4337 -13.3972 -13.3689 -13.3581
   -13.3257 -13.2808  -1.9539  -0.5978   5.4907   6.3039   8.9030   9.9185
    12.9048  14.0391  15.2516

          k =-0.1301 0.6760 0.1502 (  8370 PWs)   bands (ev):

   -13.6014 -13.5221 -13.4931 -13.4461 -13.4232 -13.4080 -13.3948 -13.3615
   -13.3400 -13.2653  -1.6794  -0.7884   5.3640   6.0251   8.1095  10.7384
    13.1329  14.1836  14.5361

          k = 0.7806 0.4507-0.3005 (  8377 PWs)   bands (ev):

   -13.6047 -13.5471 -13.4981 -13.4614 -13.4474 -13.3840 -13.3728 -13.3446
   -13.3340 -13.2620  -2.2508  -0.3127   5.7189   7.1554   7.4116  11.6170
    12.2309  13.3848  14.0885

          k = 0.7806 0.3005-0.2504 (  8375 PWs)   bands (ev):

   -13.6002 -13.5439 -13.4924 -13.4635 -13.4316 -13.3973 -13.3738 -13.3516
   -13.3340 -13.2672  -1.9278  -0.5291   5.2966   6.1038   8.2429  10.7770
    13.2236  14.2418  14.6725

          k = 0.7806 0.1502-0.2003 (  8360 PWs)   bands (ev):

   -13.6006 -13.5294 -13.4746 -13.4712 -13.4193 -13.4086 -13.3809 -13.3638
   -13.3383 -13.2684  -1.5706  -0.8408   5.4023   5.4230   8.8485  10.0325
    14.0947  14.1136  15.2646

          k = 0.6505 0.3756-0.2003 (  8377 PWs)   bands (ev):

   -13.6022 -13.5373 -13.5001 -13.4443 -13.4321 -13.4003 -13.3877 -13.3515
   -13.3366 -13.2629  -1.8200  -0.6074   5.0539   6.9226   7.0375  11.8451
    12.5595  13.9656  14.9449

          k = 0.0000 0.0000 0.4507 (  8355 PWs)   bands (ev):

   -13.5836 -13.5836 -13.4862 -13.4862 -13.4649 -13.3697 -13.3532 -13.3532
   -13.2888 -13.2888  -2.7576  -0.1130   8.1920   8.4619   8.4619  10.1646
    10.2864  10.2864  15.3652

          k = 0.0000 1.0516 0.1002 (  8339 PWs)   bands (ev):

   -13.5822 -13.5697 -13.4819 -13.4812 -13.4607 -13.3735 -13.3569 -13.3562
   -13.3037 -13.2915  -2.5209  -0.3277   6.7749   8.3666   8.7456   9.8084
    10.3156  12.0822  15.4932

          k = 0.0000 0.9014 0.1502 (  8351 PWs)   bands (ev):

   -13.5786 -13.5657 -13.4866 -13.4665 -13.4510 -13.3820 -13.3680 -13.3539
   -13.3122 -13.2918  -2.1420  -0.5158   5.6230   7.5495   7.7799  11.0202
    11.4214  13.8260  15.1354

          k = 0.9107 0.5258-0.2504 (  8335 PWs)   bands (ev):

   -13.5813 -13.5642 -13.4856 -13.4764 -13.4577 -13.3758 -13.3605 -13.3532
   -13.3123 -13.2904  -2.4336  -0.4397   6.9098   7.9506   8.4540  10.1630
    10.8384  11.6661  15.3698

          k = 0.9107 0.3756-0.2003 (  8338 PWs)   bands (ev):

   -13.5824 -13.5625 -13.4830 -13.4758 -13.4499 -13.3816 -13.3619 -13.3556
   -13.3150 -13.2888  -2.2084  -0.4978   6.0152   6.8350   9.1455   9.6017
    12.3597  12.9604  15.2581

          k = 0.0000 0.0000-0.6009 (  8340 PWs)   bands (ev):

   -13.5703 -13.5703 -13.4818 -13.4818 -13.4590 -13.3752 -13.3562 -13.3562
   -13.3037 -13.3037  -2.5002  -0.5005   8.2199   8.6042   8.6042   9.9644
     9.9644   9.9697  16.1763

     the Fermi energy is     9.1869 ev

!    total energy              =    -328.20573886 Ry
     Harris-Foulkes estimate   =    -328.20573886 Ry
     estimated scf accuracy    <          8.1E-09 Ry

     The total energy is the sum of the following terms:

     one-electron contribution =    -112.23648283 Ry
     hartree contribution      =      72.64552887 Ry
     xc contribution           =     -86.59756592 Ry
     ewald contribution        =    -202.01721772 Ry
     smearing contrib. (-TS)   =      -0.00000127 Ry

     convergence has been achieved in   8 iterations

     Forces acting on atoms (cartesian axes, Ry/au):

     atom    1 type  1   force =     0.00000000    0.00000000   -0.00460946
     atom    2 type  1   force =     0.00000000    0.00000000    0.00460946

     Total force =     0.006519     Total SCF correction =     0.000479


     Computing stress (Cartesian axis) and pressure

          total   stress  (Ry/bohr**3)                   (kbar)     P=    2.51
   0.00000567  -0.00000000   0.00000000          0.83     -0.00      0.00
   0.00000000   0.00000567   0.00000000          0.00      0.83      0.00
  -0.00000000   0.00000000   0.00003985         -0.00      0.00      5.86


     Writing output data file Bi.save
 
     init_run     :      0.56s CPU      1.74s WALL (       1 calls)
     electrons    :     14.89s CPU     15.80s WALL (       1 calls)
     forces       :      0.10s CPU      0.12s WALL (       1 calls)
     stress       :      0.28s CPU      0.28s WALL (       1 calls)

     Called by init_run:
     wfcinit      :      0.48s CPU      0.95s WALL (       1 calls)
     potinit      :      0.03s CPU      0.09s WALL (       1 calls)

     Called by electrons:
     c_bands      :     12.64s CPU     13.23s WALL (       9 calls)
     sum_band     :      2.18s CPU      2.26s WALL (       9 calls)
     v_of_rho     :      0.04s CPU      0.07s WALL (       9 calls)
     mix_rho      :      0.01s CPU      0.06s WALL (       9 calls)

     Called by c_bands:
     init_us_2    :      0.17s CPU      0.18s WALL (    1365 calls)
     cegterg      :     11.92s CPU     12.32s WALL (     585 calls)

     Called by sum_band:

     Called by *egterg:
     h_psi        :     10.54s CPU     10.91s WALL (    1907 calls)
     g_psi        :      0.05s CPU      0.05s WALL (    1257 calls)
     cdiaghg      :      1.00s CPU      1.45s WALL (    1777 calls)

     Called by h_psi:
     h_psi:pot    :     10.50s CPU     10.87s WALL (    1907 calls)
     h_psi:calbec :      0.22s CPU      0.34s WALL (    1907 calls)
     vloc_psi     :     10.16s CPU     10.39s WALL (    1907 calls)
     add_vuspsi   :      0.11s CPU      0.13s WALL (    1907 calls)

     General routines
     calbec       :      0.25s CPU      0.38s WALL (    2232 calls)
     fft          :      0.04s CPU      0.45s WALL (     125 calls)
     fftw         :     11.26s CPU     11.52s WALL (   68169 calls)
 
     Parallel routines
     fft_scatt_xy :      0.87s CPU      0.92s WALL (   68294 calls)
     fft_scatt_yz :      4.43s CPU      4.49s WALL (   68294 calls)
 
     PWSCF        :    16.88s CPU        22.31s WALL

 
   This run was terminated on:  15: 1:46   8Apr2020            

=------------------------------------------------------------------------------=
   JOB DONE.
=------------------------------------------------------------------------------=
