mpijob CMD    : mpirun -f /tmp/mpiexec.params.k050801.99314
mpijob PARAMS : -d /home/k0508/k050801/qeirreps/ver_5/qeirreps/reference/Bi_nonsoc
        r1i6n18 24 omplace -nt 1 "/home/k0508/k050801/qe-6.6/bin/pw.x"

SGI MPT Placement option
--------------------------
omplace -nt 1

Node   MPI
------------
r1i6n18 24


     Program PWSCF v.6.6 starts on 29Nov2020 at 17:49:36 

     This program is part of the open-source Quantum ESPRESSO suite
     for quantum simulation of materials; please cite
         "P. Giannozzi et al., J. Phys.:Condens. Matter 21 395502 (2009);
         "P. Giannozzi et al., J. Phys.:Condens. Matter 29 465901 (2017);
          URL http://www.quantum-espresso.org", 
     in publications or presentations arising from this work. More details at
     http://www.quantum-espresso.org/quote

     Parallel version (MPI), running on    24 processors

     MPI processes distributed on     1 nodes
     R & G space division:  proc/nbgrp/npool/nimage =      24
     Fft bands division:     nmany     =       1
     Waiting for input...
     Reading input from standard input

     Current dimensions of program PWSCF are:
     Max number of different atomic species (ntypx) = 10
     Max number of k-points (npk) =  40000
     Max angular momentum in pseudopotentials (lmaxx) =  3

     Subspace diagonalization in iterative solution of the eigenvalue problem:
     a serial algorithm will be used

     Message from routine setup:
     using ibrav=0 with symmetry is DISCOURAGED, use correct ibrav instead
 
     Parallelization info
     --------------------
     sticks:   dense  smooth     PW     G-vecs:    dense   smooth      PW
     Min          91      91     26                 2787     2787     435
     Max          92      92     27                 2793     2793     437
     Sum        2197    2197    641                66925    66925   10459
 


     bravais-lattice index     =            0
     lattice parameter (alat)  =       9.0662  a.u.
     unit-cell volume          =     495.7043 (a.u.)^3
     number of atoms/cell      =            2
     number of atomic types    =            1
     number of electrons       =        30.00
     number of Kohn-Sham states=           19
     kinetic-energy cutoff     =     100.0000  Ry
     charge density cutoff     =     400.0000  Ry
     convergence threshold     =      1.0E-08
     mixing beta               =       0.3000
     number of iterations used =            8  plain     mixing
     Exchange-correlation= PBE
                           (   1   4   3   4   0   0   0)

     celldm(1)=   9.066241  celldm(2)=   0.000000  celldm(3)=   0.000000
     celldm(4)=   0.000000  celldm(5)=   0.000000  celldm(6)=   0.000000

     crystal axes: (cart. coord. in units of alat)
               a(1) = (   0.480401   0.277359   0.832038 )  
               a(2) = (  -0.480401   0.277359   0.832038 )  
               a(3) = (   0.000000  -0.554719   0.832038 )  

     reciprocal axes: (cart. coord. in units 2 pi/alat)
               b(1) = (  1.040798  0.600905  0.400623 )  
               b(2) = ( -1.040798  0.600905  0.400623 )  
               b(3) = (  0.000000 -1.201810  0.400623 )  


     PseudoPot. # 1 for Bi read from file:
     ../../pseudo/nonsoc/Bi.upf
     MD5 check sum: 200c63f77f1a5690b65e64056759e8a3
     Pseudo is Norm-conserving + core correction, Zval = 15.0
     Generated using ONCVPSP code by D. R. Hamann
     Using radial grid of 1490 points,  6 beta functions with: 
                l(1) =   0
                l(2) =   0
                l(3) =   1
                l(4) =   1
                l(5) =   2
                l(6) =   2

     atomic species   valence    mass     pseudopotential
        Bi            15.00   208.98040     Bi( 1.00)

     12 Sym. Ops., with inversion, found



   Cartesian axes

     site n.     atom                  positions (alat units)
         1           Bi  tau(   1) = (   0.0000000   0.0000000   0.6670014  )
         2           Bi  tau(   2) = (   0.4804007   0.2773595   0.1650364  )

     number of k points=    65  Methfessel-Paxton smearing, width (Ry)=  0.0100
                       cart. coord. in units 2pi/alat
        k(    1) = (   0.0000000   0.0000000   0.0000000), wk =   0.0039062
        k(    2) = (   0.0000000  -0.1502262   0.0500779), wk =   0.0234375
        k(    3) = (   0.0000000  -0.3004525   0.1001557), wk =   0.0234375
        k(    4) = (   0.0000000  -0.4506787   0.1502336), wk =   0.0234375
        k(    5) = (   0.0000000   0.6009049  -0.2003114), wk =   0.0117188
        k(    6) = (  -0.1300997  -0.0751131   0.1001557), wk =   0.0234375
        k(    7) = (  -0.1300997  -0.2253393   0.1502336), wk =   0.0468750
        k(    8) = (  -0.1300997  -0.3755656   0.2003114), wk =   0.0468750
        k(    9) = (  -0.1300997   0.6760180  -0.1502336), wk =   0.0468750
        k(   10) = (  -0.1300997   0.5257918  -0.1001557), wk =   0.0468750
        k(   11) = (  -0.1300997   0.3755656  -0.0500779), wk =   0.0468750
        k(   12) = (  -0.1300997   0.2253393   0.0000000), wk =   0.0234375
        k(   13) = (  -0.2601995  -0.1502262   0.2003114), wk =   0.0234375
        k(   14) = (  -0.2601995  -0.3004525   0.2503893), wk =   0.0468750
        k(   15) = (  -0.2601995   0.7511312  -0.1001557), wk =   0.0468750
        k(   16) = (  -0.2601995   0.6009049  -0.0500779), wk =   0.0468750
        k(   17) = (  -0.2601995   0.4506787   0.0000000), wk =   0.0234375
        k(   18) = (  -0.3902992  -0.2253393   0.3004671), wk =   0.0234375
        k(   19) = (  -0.3902992   0.8262443  -0.0500779), wk =   0.0468750
        k(   20) = (  -0.3902992   0.6760180   0.0000000), wk =   0.0234375
        k(   21) = (   0.5203989   0.3004525  -0.4006228), wk =   0.0117188
        k(   22) = (   0.0000000   0.0000000   0.1502336), wk =   0.0078125
        k(   23) = (   0.0000000  -0.1502262   0.2003114), wk =   0.0234375
        k(   24) = (   0.0000000  -0.3004525   0.2503893), wk =   0.0234375
        k(   25) = (   0.0000000   0.7511312  -0.1001557), wk =   0.0234375
        k(   26) = (   0.0000000   0.6009049  -0.0500779), wk =   0.0234375
        k(   27) = (   0.0000000   0.4506787   0.0000000), wk =   0.0234375
        k(   28) = (   0.0000000   0.3004525   0.0500779), wk =   0.0234375
        k(   29) = (  -0.1300997  -0.0751131   0.2503893), wk =   0.0234375
        k(   30) = (  -0.1300997  -0.2253393   0.3004671), wk =   0.0468750
        k(   31) = (  -0.1300997   0.8262443  -0.0500779), wk =   0.0468750
        k(   32) = (  -0.1300997   0.6760180   0.0000000), wk =   0.0468750
        k(   33) = (  -0.1300997   0.5257918   0.0500779), wk =   0.0468750
        k(   34) = (  -0.1300997   0.3755656   0.1001557), wk =   0.0468750
        k(   35) = (  -0.2601995  -0.1502262   0.3505450), wk =   0.0234375
        k(   36) = (  -0.2601995   0.9013574   0.0000000), wk =   0.0468750
        k(   37) = (  -0.2601995   0.7511312   0.0500779), wk =   0.0468750
        k(   38) = (  -0.2601995   0.6009049   0.1001557), wk =   0.0468750
        k(   39) = (  -0.2601995   0.4506787   0.1502336), wk =   0.0468750
        k(   40) = (   0.6504987   0.3755656  -0.3505450), wk =   0.0234375
        k(   41) = (   0.6504987   0.2253393  -0.3004671), wk =   0.0468750
        k(   42) = (   0.6504987   0.0751131  -0.2503893), wk =   0.0468750
        k(   43) = (   0.6504987  -0.0751131  -0.2003114), wk =   0.0234375
        k(   44) = (   0.5203989   0.3004525  -0.2503893), wk =   0.0234375
        k(   45) = (   0.5203989   0.1502262  -0.2003114), wk =   0.0468750
        k(   46) = (   0.3902992   0.2253393  -0.1502336), wk =   0.0234375
        k(   47) = (   0.0000000   0.0000000   0.3004671), wk =   0.0078125
        k(   48) = (   0.0000000  -0.1502262   0.3505450), wk =   0.0234375
        k(   49) = (   0.0000000   0.9013574   0.0000000), wk =   0.0234375
        k(   50) = (   0.0000000   0.7511312   0.0500779), wk =   0.0234375
        k(   51) = (   0.0000000   0.6009049   0.1001557), wk =   0.0234375
        k(   52) = (  -0.1300997  -0.0751131   0.4006228), wk =   0.0234375
        k(   53) = (  -0.1300997   0.9764705   0.0500779), wk =   0.0468750
        k(   54) = (  -0.1300997   0.8262443   0.1001557), wk =   0.0468750
        k(   55) = (  -0.1300997   0.6760180   0.1502336), wk =   0.0468750
        k(   56) = (   0.7805984   0.4506787  -0.3004671), wk =   0.0234375
        k(   57) = (   0.7805984   0.3004525  -0.2503893), wk =   0.0468750
        k(   58) = (   0.7805984   0.1502262  -0.2003114), wk =   0.0234375
        k(   59) = (   0.6504987   0.3755656  -0.2003114), wk =   0.0234375
        k(   60) = (   0.0000000   0.0000000   0.4507007), wk =   0.0078125
        k(   61) = (   0.0000000   1.0515836   0.1001557), wk =   0.0234375
        k(   62) = (   0.0000000   0.9013574   0.1502336), wk =   0.0234375
        k(   63) = (   0.9106981   0.5257918  -0.2503893), wk =   0.0234375
        k(   64) = (   0.9106981   0.3755656  -0.2003114), wk =   0.0234375
        k(   65) = (   0.0000000   0.0000000  -0.6009342), wk =   0.0039062

     Dense  grid:    66925 G-vectors     FFT dimensions: (  60,  60,  60)

     Estimated max dynamical RAM per process >      10.84 MB

     Estimated total dynamical RAM >     260.07 MB

     Initial potential from superposition of free atoms

     starting charge   29.99830, renormalised to   30.00000
     Starting wfcs are   18 randomized atomic wfcs +    1 random wfcs

     total cpu time spent up to now is        1.0 secs

     Self-consistent Calculation

     iteration #  1     ecut=   100.00 Ry     beta= 0.30
     Davidson diagonalization with overlap
     ethr =  1.00E-02,  avg # of iterations =  4.5

     Threshold (ethr) on eigenvalues was too large:
     Diagonalizing with lowered threshold

     Davidson diagonalization with overlap
     ethr =  1.98E-05,  avg # of iterations =  5.4

     total cpu time spent up to now is        4.3 secs

     total energy              =    -328.20557978 Ry
     estimated scf accuracy    <       0.00587707 Ry

     iteration #  2     ecut=   100.00 Ry     beta= 0.30
     Davidson diagonalization with overlap
     ethr =  1.96E-05,  avg # of iterations =  1.0

     total cpu time spent up to now is        5.4 secs

     total energy              =    -328.20553373 Ry
     estimated scf accuracy    <       0.00259492 Ry

     iteration #  3     ecut=   100.00 Ry     beta= 0.30
     Davidson diagonalization with overlap
     ethr =  8.65E-06,  avg # of iterations =  1.1

     total cpu time spent up to now is        6.6 secs

     total energy              =    -328.20571756 Ry
     estimated scf accuracy    <       0.00010187 Ry

     iteration #  4     ecut=   100.00 Ry     beta= 0.30
     Davidson diagonalization with overlap
     ethr =  3.40E-07,  avg # of iterations =  2.2

     total cpu time spent up to now is        8.1 secs

     total energy              =    -328.20573761 Ry
     estimated scf accuracy    <       0.00001379 Ry

     iteration #  5     ecut=   100.00 Ry     beta= 0.30
     Davidson diagonalization with overlap
     ethr =  4.60E-08,  avg # of iterations =  2.0

     total cpu time spent up to now is        9.4 secs

     total energy              =    -328.20573866 Ry
     estimated scf accuracy    <       0.00000112 Ry

     iteration #  6     ecut=   100.00 Ry     beta= 0.30
     Davidson diagonalization with overlap
     ethr =  3.73E-09,  avg # of iterations =  2.0

     total cpu time spent up to now is       10.9 secs

     total energy              =    -328.20573874 Ry
     estimated scf accuracy    <       0.00000047 Ry

     iteration #  7     ecut=   100.00 Ry     beta= 0.30
     Davidson diagonalization with overlap
     ethr =  1.56E-09,  avg # of iterations =  2.0

     total cpu time spent up to now is       12.4 secs

     total energy              =    -328.20573886 Ry
     estimated scf accuracy    <       0.00000008 Ry

     iteration #  8     ecut=   100.00 Ry     beta= 0.30
     Davidson diagonalization with overlap
     ethr =  2.54E-10,  avg # of iterations =  1.0

     total cpu time spent up to now is       13.6 secs

     total energy              =    -328.20573886 Ry
     estimated scf accuracy    <       0.00000002 Ry

     iteration #  9     ecut=   100.00 Ry     beta= 0.30
     Davidson diagonalization with overlap
     ethr =  6.00E-11,  avg # of iterations =  2.0

     total cpu time spent up to now is       15.1 secs

     End of self-consistent calculation

          k = 0.0000 0.0000 0.0000 (  8383 PWs)   bands (ev):

   -13.6435 -13.6435 -13.5098 -13.5098 -13.4904 -13.3462 -13.3343 -13.3343
   -13.2224 -13.2224  -3.6064   1.6286   7.9182   8.0634   8.0634  11.6054
    12.1293  12.1293  15.0324

          k = 0.0000-0.1502 0.0501 (  8368 PWs)   bands (ev):

   -13.6342 -13.6308 -13.5054 -13.5020 -13.4838 -13.3527 -13.3409 -13.3382
   -13.2361 -13.2321  -3.4680   1.3264   7.9538   8.0474   8.0753  11.3326
    11.5771  11.8176  14.4086

          k = 0.0000-0.3005 0.1002 (  8390 PWs)   bands (ev):

   -13.6095 -13.5949 -13.4954 -13.4804 -13.4638 -13.3746 -13.3599 -13.3466
   -13.2732 -13.2579  -3.0609   0.5530   7.9119   8.0264   8.2760  10.3372
    10.9539  11.1534  14.5397

          k = 0.0000-0.4507 0.1502 (  8389 PWs)   bands (ev):

   -13.5796 -13.5425 -13.4853 -13.4507 -13.4376 -13.4067 -13.3872 -13.3574
   -13.3205 -13.2885  -2.4190  -0.4224   7.9130   8.0337   8.5915   9.5098
    10.2406  10.5762  15.5483

          k = 0.0000 0.6009-0.2003 (  8404 PWs)   bands (ev):

   -13.5647 -13.4990 -13.4800 -13.4589 -13.4257 -13.4113 -13.3865 -13.3816
   -13.3446 -13.3038  -1.8160  -1.1556   7.9441   8.0470   8.9760   8.9912
     9.8866  10.3512  16.7620

          k =-0.1301-0.0751 0.1002 (  8355 PWs)   bands (ev):

   -13.6419 -13.6182 -13.5084 -13.4983 -13.4814 -13.3551 -13.3438 -13.3354
   -13.2507 -13.2230  -3.4326   1.2705   7.5906   7.7514   8.7639  10.4608
    11.9036  12.3853  14.2194

          k =-0.1301-0.2253 0.1502 (  8374 PWs)   bands (ev):

   -13.6297 -13.5872 -13.5013 -13.4859 -13.4649 -13.3724 -13.3536 -13.3419
   -13.2837 -13.2354  -3.1287   0.7409   7.3286   7.5029   8.8444  10.0063
    11.8822  12.0411  13.8945

          k =-0.1301-0.3756 0.2003 (  8387 PWs)   bands (ev):

   -13.6016 -13.5469 -13.4827 -13.4738 -13.4371 -13.4028 -13.3662 -13.3579
   -13.3219 -13.2647  -2.5794  -0.0947   7.2077   7.3259   8.3065  10.3093
    11.2274  11.6012  14.3953

          k =-0.1301 0.6760-0.1502 (  8375 PWs)   bands (ev):

   -13.5782 -13.5052 -13.4756 -13.4534 -13.4331 -13.4086 -13.3953 -13.3680
   -13.3485 -13.2896  -1.8764  -0.9769   6.9350   7.5121   8.1835  10.2218
    10.5633  11.5370  15.7989

          k =-0.1301 0.5258-0.1002 (  8397 PWs)   bands (ev):

   -13.5858 -13.4978 -13.4791 -13.4586 -13.4341 -13.4084 -13.3924 -13.3700
   -13.3472 -13.2823  -2.0531  -0.7782   6.7756   7.9371   8.4255   9.9202
    10.0534  11.9468  15.5262

          k =-0.1301 0.3756-0.0501 (  8393 PWs)   bands (ev):

   -13.6108 -13.5505 -13.4898 -13.4733 -13.4368 -13.4047 -13.3667 -13.3521
   -13.3151 -13.2560  -2.7413   0.1200   6.9083   8.3436   8.6270   9.7807
    10.1558  12.3767  14.4284

          k =-0.1301 0.2253 0.0000 (  8384 PWs)   bands (ev):

   -13.6301 -13.5993 -13.5001 -13.4920 -13.4673 -13.3707 -13.3481 -13.3434
   -13.2694 -13.2357  -3.2321   0.8958   7.3619   8.3223   8.3919  10.4306
    10.8298  12.3608  14.0704

          k =-0.2602-0.1502 0.2003 (  8374 PWs)   bands (ev):

   -13.6379 -13.5596 -13.5104 -13.4702 -13.4559 -13.3809 -13.3671 -13.3341
   -13.3144 -13.2247  -2.9431   0.5936   6.7645   7.1395   7.8398  11.1746
    11.9638  12.9906  13.9100

          k =-0.2602-0.3005 0.2504 (  8368 PWs)   bands (ev):

   -13.6265 -13.5293 -13.5039 -13.4600 -13.4367 -13.4007 -13.3763 -13.3475
   -13.3376 -13.2363  -2.5259   0.0968   6.2551   6.8758   7.2644  11.9891
    12.2742  12.7571  13.7430

          k =-0.2602 0.7511-0.1002 (  8370 PWs)   bands (ev):

   -13.6044 -13.5099 -13.4798 -13.4591 -13.4290 -13.4094 -13.3858 -13.3664
   -13.3496 -13.2609  -1.9312  -0.6301   5.7817   6.9163   7.2505  11.7747
    11.9414  13.2419  14.0572

          k =-0.2602 0.6009-0.0501 (  8368 PWs)   bands (ev):

   -13.5943 -13.4912 -13.4670 -13.4530 -13.4390 -13.4218 -13.3896 -13.3671
   -13.3571 -13.2744  -1.5365  -1.1200   5.6587   7.3161   7.5657  10.9831
    11.2287  13.6976  15.4423

          k =-0.2602 0.4507 0.0000 (  8374 PWs)   bands (ev):

   -13.6031 -13.4977 -13.4768 -13.4606 -13.4459 -13.4027 -13.3923 -13.3610
   -13.3497 -13.2653  -2.1973  -0.4785   6.0328   7.9635   8.1268  10.2961
    10.3617  13.4702  14.7719

          k =-0.3903-0.2253 0.3005 (  8359 PWs)   bands (ev):

   -13.6339 -13.5148 -13.5135 -13.4392 -13.4369 -13.3978 -13.3929 -13.3668
   -13.3313 -13.2265  -2.2862   0.0253   5.4958   6.6458   6.6883  11.7260
    13.6748  13.8284  14.3317

          k =-0.3903 0.8262-0.0501 (  8360 PWs)   bands (ev):

   -13.6249 -13.5114 -13.5048 -13.4393 -13.4232 -13.4098 -13.3912 -13.3753
   -13.3368 -13.2366  -1.9250  -0.3385   5.0502   6.5606   6.6479  12.0056
    13.2675  13.9946  14.9318

          k =-0.3903 0.6760 0.0000 (  8366 PWs)   bands (ev):

   -13.6077 -13.5093 -13.4779 -13.4462 -13.4399 -13.4058 -13.3813 -13.3797
   -13.3480 -13.2578  -1.5333  -0.8907   5.0707   6.8264   6.9109  12.2076
    12.2652  13.9140  14.9246

          k = 0.5204 0.3005-0.4006 (  8330 PWs)   bands (ev):

   -13.6321 -13.5151 -13.5111 -13.4256 -13.4171 -13.4128 -13.4017 -13.3793
   -13.3304 -13.2272  -1.9104  -0.2297   4.8077   6.4278   6.4639  11.6128
    14.0105  14.5709  15.6743

          k = 0.0000 0.0000 0.1502 (  8349 PWs)   bands (ev):

   -13.6346 -13.6346 -13.5060 -13.5060 -13.4866 -13.3496 -13.3373 -13.3373
   -13.2322 -13.2322  -3.4970   1.3451   7.9903   8.1078   8.1078  11.2865
    11.7582  11.7582  14.3671

          k = 0.0000-0.1502 0.2003 (  8362 PWs)   bands (ev):

   -13.6270 -13.6117 -13.4986 -13.4975 -13.4787 -13.3570 -13.3448 -13.3435
   -13.2573 -13.2401  -3.2899   0.9454   7.2816   8.4071   8.6384  10.3947
    10.9165  12.3804  14.4436

          k = 0.0000-0.3005 0.2504 (  8380 PWs)   bands (ev):

   -13.5966 -13.5828 -13.4850 -13.4785 -13.4620 -13.3754 -13.3610 -13.3555
   -13.2872 -13.2721  -2.8255   0.2070   6.7816   8.3929   9.1502   9.4063
    10.4369  12.3576  14.6546

          k = 0.0000 0.7511-0.1002 (  8370 PWs)   bands (ev):

   -13.5658 -13.5487 -13.4807 -13.4520 -13.4362 -13.4058 -13.3848 -13.3606
   -13.3176 -13.3036  -2.1594  -0.6697   6.6945   8.0288   8.5132   9.7155
    10.5258  11.7164  15.8741

          k = 0.0000 0.6009-0.0501 (  8394 PWs)   bands (ev):

   -13.5769 -13.5014 -13.4864 -13.4536 -13.4241 -13.4115 -13.3908 -13.3772
   -13.3431 -13.2905  -1.8634  -0.9968   7.0105   7.6528   7.9524  10.2492
    10.9670  11.0546  15.2725

          k = 0.0000 0.4507 0.0000 (  8396 PWs)   bands (ev):

   -13.6055 -13.5300 -13.4972 -13.4474 -13.4401 -13.4046 -13.3892 -13.3510
   -13.3306 -13.2599  -2.5331  -0.1509   7.4642   7.4952   7.7962  10.4608
    10.9567  11.5986  14.1676

          k = 0.0000 0.3005 0.0501 (  8364 PWs)   bands (ev):

   -13.6310 -13.5807 -13.5057 -13.4773 -13.4613 -13.3770 -13.3620 -13.3381
   -13.2894 -13.2334  -3.1016   0.7119   7.4457   7.5068   8.5672  10.1095
    11.5789  12.2329  13.8232

          k =-0.1301-0.0751 0.2504 (  8368 PWs)   bands (ev):

   -13.6320 -13.5939 -13.5046 -13.4893 -13.4730 -13.3623 -13.3509 -13.3383
   -13.2782 -13.2335  -3.1898   0.7908   7.3068   7.6118   9.0668   9.9051
    11.8521  12.1799  14.0332

          k =-0.1301-0.2253 0.3005 (  8365 PWs)   bands (ev):

   -13.6204 -13.5656 -13.4981 -13.4767 -13.4590 -13.3763 -13.3612 -13.3440
   -13.3087 -13.2455  -2.8375   0.3217   6.5824   7.4647   8.4657  10.5124
    11.5073  12.7835  14.1293

          k =-0.1301 0.8262-0.0501 (  8374 PWs)   bands (ev):

   -13.5946 -13.5429 -13.4799 -13.4719 -13.4366 -13.3990 -13.3679 -13.3595
   -13.3301 -13.2726  -2.2722  -0.3702   6.1923   6.8281   8.6388  10.1040
    11.9462  12.9209  14.4666

          k =-0.1301 0.6760 0.0000 (  8375 PWs)   bands (ev):

   -13.5844 -13.5166 -13.4814 -13.4498 -13.4280 -13.4086 -13.3949 -13.3646
   -13.3427 -13.2838  -1.6985  -1.0069   6.2803   6.3795   8.7247   9.7948
    12.3306  12.5352  15.3783

          k =-0.1301 0.5258 0.0501 (  8384 PWs)   bands (ev):

   -13.6030 -13.4989 -13.4875 -13.4569 -13.4311 -13.4099 -13.3874 -13.3740
   -13.3427 -13.2634  -2.1182  -0.5357   6.2898   6.8411   8.3001  10.2366
    11.6301  12.8436  14.3903

          k =-0.1301 0.3756 0.1002 (  8362 PWs)   bands (ev):

   -13.6224 -13.5411 -13.4992 -13.4669 -13.4370 -13.4039 -13.3714 -13.3456
   -13.3258 -13.2422  -2.7205   0.2032   6.6577   7.6625   7.8669  10.8254
    11.0643  12.7084  13.9499

          k =-0.2602-0.1502 0.3505 (  8363 PWs)   bands (ev):

   -13.6279 -13.5440 -13.5073 -13.4630 -13.4502 -13.3834 -13.3721 -13.3365
   -13.3348 -13.2354  -2.6211   0.1918   6.1592   7.0138   7.3863  11.7905
    12.5041  12.8872  13.9056

          k =-0.2602 0.9014 0.0000 (  8369 PWs)   bands (ev):

   -13.6180 -13.5305 -13.5012 -13.4580 -13.4336 -13.3975 -13.3774 -13.3518
   -13.3401 -13.2458  -2.2131  -0.1933   5.5969   6.3065   7.6054  11.6112
    12.8592  13.6321  14.3558

          k =-0.2602 0.7511 0.0501 (  8358 PWs)   bands (ev):

   -13.6023 -13.5227 -13.4790 -13.4642 -13.4211 -13.4093 -13.3825 -13.3643
   -13.3440 -13.2645  -1.6941  -0.7649   5.3777   5.9506   8.1233  10.8053
    13.3379  14.1765  14.3825

          k =-0.2602 0.6009 0.1002 (  8378 PWs)   bands (ev):

   -13.5997 -13.5004 -13.4711 -13.4509 -13.4408 -13.4133 -13.3876 -13.3716
   -13.3499 -13.2689  -1.5577  -0.9985   5.5096   6.2701   8.5019  10.0610
    12.7877  13.9556  15.1373

          k =-0.2602 0.4507 0.1502 (  8381 PWs)   bands (ev):

   -13.6040 -13.5008 -13.4770 -13.4603 -13.4403 -13.4059 -13.3895 -13.3639
   -13.3503 -13.2629  -2.1249  -0.5209   6.1261   7.1052   8.0879  10.2957
    11.6744  13.0362  14.3980

          k = 0.6505 0.3756-0.3505 (  8365 PWs)   bands (ev):

   -13.6245 -13.5241 -13.5102 -13.4396 -13.4316 -13.3980 -13.3915 -13.3629
   -13.3337 -13.2369  -2.0239  -0.2356   5.0151   6.6401   6.6984  11.8596
    13.4745  14.0561  15.0225

          k = 0.6505 0.2253-0.3005 (  8371 PWs)   bands (ev):

   -13.6179 -13.5187 -13.5025 -13.4413 -13.4210 -13.4078 -13.3939 -13.3668
   -13.3381 -13.2450  -1.7775  -0.5042   4.9378   6.0801   7.2878  11.8155
    12.8918  14.5778  15.2758

          k = 0.6505 0.0751-0.2504 (  8362 PWs)   bands (ev):

   -13.6054 -13.5071 -13.4759 -13.4481 -13.4396 -13.4077 -13.3855 -13.3754
   -13.3476 -13.2614  -1.5451  -0.9165   5.2951   6.1016   7.9513  10.7811
    13.3313  14.1851  14.4813

          k = 0.6505-0.0751-0.2003 (  8390 PWs)   bands (ev):

   -13.5922 -13.4865 -13.4658 -13.4530 -13.4319 -13.4318 -13.3908 -13.3659
   -13.3607 -13.2761  -1.5076  -1.1923   5.9490   6.8739   8.2520   9.9512
    12.1368  12.8997  15.5871

          k = 0.5204 0.3005-0.2504 (  8374 PWs)   bands (ev):

   -13.6240 -13.5110 -13.5095 -13.4306 -13.4183 -13.4125 -13.4009 -13.3765
   -13.3329 -13.2369  -1.9170  -0.3565   5.0772   6.6131   6.6182  11.7861
    13.4272  13.9996  14.8295

          k = 0.5204 0.1502-0.2003 (  8362 PWs)   bands (ev):

   -13.6190 -13.5054 -13.4973 -13.4462 -13.4274 -13.4109 -13.3873 -13.3777
   -13.3386 -13.2441  -2.0612  -0.3585   5.6429   6.3628   7.3726  11.5473
    12.7670  13.4461  14.3108

          k = 0.3903 0.2253-0.1502 (  8367 PWs)   bands (ev):

   -13.6267 -13.5174 -13.5085 -13.4429 -13.4413 -13.4009 -13.3915 -13.3569
   -13.3332 -13.2354  -2.4797   0.0392   6.3970   6.9370   7.0504  11.7602
    12.2213  12.8492  13.6487

          k = 0.0000 0.0000 0.3005 (  8376 PWs)   bands (ev):

   -13.6111 -13.6111 -13.4963 -13.4963 -13.4767 -13.3585 -13.3450 -13.3450
   -13.2581 -13.2581  -3.1866   0.6540   8.1128   8.2458   8.2458  10.6729
    10.9956  10.9956  14.5002

          k = 0.0000-0.1502 0.3505 (  8356 PWs)   bands (ev):

   -13.6082 -13.5842 -13.4901 -13.4878 -13.4690 -13.3658 -13.3524 -13.3498
   -13.2874 -13.2614  -2.9314   0.2959   6.8748   8.6155   9.0673   9.6521
    10.2659  12.4660  14.7110

          k = 0.0000 0.9014 0.0000 (  8362 PWs)   bands (ev):

   -13.5854 -13.5680 -13.4806 -13.4734 -13.4572 -13.3784 -13.3632 -13.3588
   -13.3035 -13.2870  -2.4524  -0.2217   5.9729   8.0983   8.4266  10.1861
    10.6710  13.5267  15.2038

          k = 0.0000 0.7511 0.0501 (  8389 PWs)   bands (ev):

   -13.5766 -13.5466 -13.4874 -13.4496 -13.4345 -13.4030 -13.3843 -13.3558
   -13.3252 -13.2917  -1.8719  -0.7879   5.6383   7.4495   7.6533  10.9170
    11.4333  13.5787  15.1159

          k = 0.0000 0.6009 0.1002 (  8374 PWs)   bands (ev):

   -13.6024 -13.5061 -13.4994 -13.4421 -13.4211 -13.4120 -13.3968 -13.3740
   -13.3385 -13.2619  -1.9126  -0.6651   5.8510   7.0410   7.1488  11.4718
    12.1956  12.9882  13.9158

          k =-0.1301-0.0751 0.4006 (  8359 PWs)   bands (ev):

   -13.6082 -13.5698 -13.4953 -13.4797 -13.4631 -13.3709 -13.3584 -13.3454
   -13.3052 -13.2599  -2.7927   0.0987   7.1180   7.6759   8.5793  10.2178
    11.5276  11.5996  14.3677

          k =-0.1301 0.9765 0.0501 (  8353 PWs)   bands (ev):

   -13.6000 -13.5559 -13.4901 -13.4728 -13.4529 -13.3797 -13.3642 -13.3497
   -13.3212 -13.2688  -2.4414  -0.2078   6.1433   7.0463   8.7499  10.0935
    11.9551  13.0523  14.5677

          k =-0.1301 0.8262 0.1002 (  8359 PWs)   bands (ev):

   -13.5887 -13.5494 -13.4815 -13.4710 -13.4335 -13.3971 -13.3688 -13.3580
   -13.3256 -13.2807  -1.9538  -0.5978   5.4908   6.3040   8.9031   9.9186
    12.9049  14.0392  15.2517

          k =-0.1301 0.6760 0.1502 (  8370 PWs)   bands (ev):

   -13.6012 -13.5219 -13.4929 -13.4459 -13.4231 -13.4078 -13.3946 -13.3614
   -13.3398 -13.2651  -1.6793  -0.7883   5.3641   6.0252   8.1095  10.7385
    13.1330  14.1837  14.5362

          k = 0.7806 0.4507-0.3005 (  8377 PWs)   bands (ev):

   -13.6045 -13.5470 -13.4979 -13.4613 -13.4473 -13.3838 -13.3726 -13.3444
   -13.3339 -13.2619  -2.2507  -0.3126   5.7190   7.1555   7.4116  11.6171
    12.2310  13.3849  14.0886

          k = 0.7806 0.3005-0.2504 (  8375 PWs)   bands (ev):

   -13.6001 -13.5437 -13.4923 -13.4633 -13.4314 -13.3972 -13.3736 -13.3514
   -13.3338 -13.2671  -1.9276  -0.5290   5.2966   6.1039   8.2429  10.7771
    13.2237  14.2419  14.6725

          k = 0.7806 0.1502-0.2003 (  8360 PWs)   bands (ev):

   -13.6005 -13.5293 -13.4744 -13.4711 -13.4191 -13.4084 -13.3807 -13.3637
   -13.3382 -13.2682  -1.5705  -0.8407   5.4024   5.4230   8.8485  10.0326
    14.0949  14.1137  15.2647

          k = 0.6505 0.3756-0.2003 (  8377 PWs)   bands (ev):

   -13.6020 -13.5372 -13.4999 -13.4442 -13.4320 -13.4002 -13.3876 -13.3514
   -13.3364 -13.2628  -1.8198  -0.6073   5.0539   6.9227   7.0375  11.8452
    12.5596  13.9656  14.9450

          k = 0.0000 0.0000 0.4507 (  8355 PWs)   bands (ev):

   -13.5834 -13.5834 -13.4860 -13.4860 -13.4648 -13.3695 -13.3530 -13.3530
   -13.2886 -13.2886  -2.7575  -0.1130   8.1921   8.4620   8.4620  10.1645
    10.2865  10.2865  15.3654

          k = 0.0000 1.0516 0.1002 (  8339 PWs)   bands (ev):

   -13.5820 -13.5696 -13.4817 -13.4810 -13.4606 -13.3733 -13.3568 -13.3560
   -13.3036 -13.2913  -2.5207  -0.3276   6.7750   8.3667   8.7457   9.8085
    10.3157  12.0823  15.4933

          k = 0.0000 0.9014 0.1502 (  8351 PWs)   bands (ev):

   -13.5785 -13.5655 -13.4865 -13.4664 -13.4509 -13.3819 -13.3678 -13.3537
   -13.3121 -13.2916  -2.1419  -0.5158   5.6231   7.5496   7.7799  11.0203
    11.4215  13.8261  15.1355

          k = 0.9107 0.5258-0.2504 (  8335 PWs)   bands (ev):

   -13.5812 -13.5640 -13.4854 -13.4762 -13.4576 -13.3757 -13.3604 -13.3530
   -13.3121 -13.2903  -2.4334  -0.4397   6.9099   7.9507   8.4540  10.1631
    10.8385  11.6662  15.3699

          k = 0.9107 0.3756-0.2003 (  8338 PWs)   bands (ev):

   -13.5823 -13.5624 -13.4829 -13.4756 -13.4498 -13.3814 -13.3617 -13.3554
   -13.3149 -13.2886  -2.2083  -0.4978   6.0154   6.8350   9.1455   9.6017
    12.3598  12.9604  15.2583

          k = 0.0000 0.0000-0.6009 (  8340 PWs)   bands (ev):

   -13.5701 -13.5701 -13.4816 -13.4816 -13.4589 -13.3751 -13.3560 -13.3560
   -13.3035 -13.3035  -2.5001  -0.5005   8.2200   8.6043   8.6043   9.9644
     9.9644   9.9697  16.1765

     the Fermi energy is     9.1870 ev

!    total energy              =    -328.20573886 Ry
     estimated scf accuracy    <          3.1E-09 Ry
     smearing contrib. (-TS)   =      -0.00000127 Ry
     internal energy E=F+TS    =    -328.20573759 Ry

     The total energy is F=E-TS. E is the sum of the following terms:
     one-electron contribution =    -112.23635558 Ry
     hartree contribution      =      72.64538859 Ry
     xc contribution           =     -86.59755200 Ry
     ewald contribution        =    -202.01721860 Ry

     convergence has been achieved in   9 iterations

     Forces acting on atoms (cartesian axes, Ry/au):

     atom    1 type  1   force =     0.00000000    0.00000000   -0.00462591
     atom    2 type  1   force =     0.00000000    0.00000000    0.00462591

     Total force =     0.006542     Total SCF correction =     0.000141


     Computing stress (Cartesian axis) and pressure

          total   stress  (Ry/bohr**3)                   (kbar)     P=        2.50
   0.00000573   0.00000000   0.00000000            0.84        0.00        0.00
   0.00000000   0.00000573   0.00000000            0.00        0.84        0.00
   0.00000000  -0.00000000   0.00003952            0.00       -0.00        5.81


     Writing output data file /work/k0508/k050801/Bi_ns/scf/Bi.save/
 
     init_run     :      0.49s CPU      0.55s WALL (       1 calls)
     electrons    :     13.58s CPU     14.14s WALL (       1 calls)
     forces       :      0.08s CPU      0.08s WALL (       1 calls)
     stress       :      0.25s CPU      0.25s WALL (       1 calls)

     Called by init_run:
     wfcinit      :      0.43s CPU      0.45s WALL (       1 calls)
     potinit      :      0.02s CPU      0.04s WALL (       1 calls)
     hinit0       :      0.02s CPU      0.03s WALL (       1 calls)

     Called by electrons:
     c_bands      :     11.47s CPU     11.92s WALL (      10 calls)
     sum_band     :      2.03s CPU      2.09s WALL (      10 calls)
     v_of_rho     :      0.05s CPU      0.06s WALL (      10 calls)
     mix_rho      :      0.01s CPU      0.01s WALL (      10 calls)

     Called by c_bands:
     init_us_2    :      0.15s CPU      0.16s WALL (    1495 calls)
     cegterg      :     10.86s CPU     11.20s WALL (     650 calls)

     Called by *egterg:
     cdiaghg      :      0.91s CPU      0.93s WALL (    2089 calls)
     h_psi        :      9.71s CPU     10.03s WALL (    2219 calls)
     g_psi        :      0.02s CPU      0.02s WALL (    1504 calls)

     Called by h_psi:
     h_psi:calbec :      0.21s CPU      0.21s WALL (    2219 calls)
     vloc_psi     :      9.38s CPU      9.68s WALL (    2219 calls)
     add_vuspsi   :      0.09s CPU      0.09s WALL (    2219 calls)

     General routines
     calbec       :      0.23s CPU      0.24s WALL (    2544 calls)
     fft          :      0.03s CPU      0.05s WALL (     125 calls)
     ffts         :      0.00s CPU      0.00s WALL (      10 calls)
     fftw         :     10.46s CPU     10.79s WALL (   75812 calls)
 
     Parallel routines
     fft_scatt_xy :      0.94s CPU      0.97s WALL (   75947 calls)
     fft_scatt_yz :      4.90s CPU      5.05s WALL (   75947 calls)
 
     PWSCF        :     14.68s CPU     16.00s WALL

 
   This run was terminated on:  17:49:52  29Nov2020            

=------------------------------------------------------------------------------=
   JOB DONE.
=------------------------------------------------------------------------------=
