mpijob CMD    : mpirun -f /tmp/mpiexec.params.k014709.11481
mpijob PARAMS : -d /home/k0147/k014709/research/dft/get_rep/program/example/Bi_soc
        r1i0n0 24 omplace -nt 1
        "/home/k0147/k014709/research/dft/qe-6.2/bin/bands.x"

SGI MPT Placement option
--------------------------
omplace -nt 1

Node   MPI
------------
r1i0n0 24


     Program BANDS v.6.2 (svn rev. 13949:13950) starts on 23Mar2020 at 17:43: 2 

     This program is part of the open-source Quantum ESPRESSO suite
     for quantum simulation of materials; please cite
         "P. Giannozzi et al., J. Phys.:Condens. Matter 21 395502 (2009);
         "P. Giannozzi et al., J. Phys.:Condens. Matter 29 465901 (2017);
          URL http://www.quantum-espresso.org", 
     in publications or presentations arising from this work. More details at
     http://www.quantum-espresso.org/quote

     Parallel version (MPI), running on    24 processors

     MPI processes distributed on     1 nodes
     R & G space division:  proc/nbgrp/npool/nimage =      24

     Reading data from directory:
     /work/k0147/k014709/band/Bi/Bi.save

     IMPORTANT: XC functional enforced from input :
     Exchange-correlation      = PBE ( 1  4  3  4 0 0)
     Any further DFT definition will be discarded
     Please, verify this is what you really want

     Message from routine readpp:
     file /work/k0147/k014709/band/Bi/Bi.save/Bi_ONCV_PBE_fr.upf not found
 
     Parallelization info
     --------------------
     sticks:   dense  smooth     PW     G-vecs:    dense   smooth      PW
     Min          91      91     25                 2787     2787     410
     Max          92      92     26                 2793     2793     413
     Sum        2197    2197    617                66925    66925    9883
 
     high-symmetry point:  0.0000 0.0000 0.0000   x coordinate   0.0000
     high-symmetry point:  0.0000 0.0000 0.6009   x coordinate   0.6009
     high-symmetry point:  0.5397 0.0000 0.6009   x coordinate   1.1406
     high-symmetry point:  0.7710-0.1335 0.2003   x coordinate   1.1406
     high-symmetry point:  0.5204 0.3005 0.2003   x coordinate   1.6417
     high-symmetry point:  0.0000 0.0000 0.0000   x coordinate   2.2751
     high-symmetry point:  0.7710 0.0000 0.0000   x coordinate   3.0461
     high-symmetry point:  0.6553-0.0668 0.4006   x coordinate   3.0461
     high-symmetry point:  0.5204-0.3005 0.4006   x coordinate   3.3159
     high-symmetry point:  0.0000 0.0000 0.0000   x coordinate   4.0382

     Plottable bands (eV) written to file Bi.band.gnu
     Bands written to file Bi.band

 **************************************************************************

                    xk=(   0.00000,   0.00000,   0.00000  )

     double point group D_3d (-3m) 
     there are 12 classes and  6 irreducible representations
     the character table:

       E     -E    2C3   -2C3  3C2'  -3C2' i     -i    2S6   -2S6  3s_v  -3s_v
                                                                              
G_4+   2.00 -2.00  1.00 -1.00  0.00  0.00  2.00 -2.00  1.00 -1.00  0.00  0.00
G_5+   1.00 -1.00 -1.00  1.00  0.00  0.00  1.00 -1.00 -1.00  1.00  0.00  0.00
G_6+   1.00 -1.00 -1.00  1.00  0.00  0.00  1.00 -1.00 -1.00  1.00  0.00  0.00
G_4-   2.00 -2.00  1.00 -1.00  0.00  0.00 -2.00  2.00 -1.00  1.00  0.00  0.00
G_5-   1.00 -1.00 -1.00  1.00  0.00  0.00 -1.00  1.00  1.00 -1.00  0.00  0.00
G_6-   1.00 -1.00 -1.00  1.00  0.00  0.00 -1.00  1.00  1.00 -1.00  0.00  0.00

     imaginary part

       E     -E    2C3   -2C3  3C2'  -3C2' i     -i    2S6   -2S6  3s_v  -3s_v
                                                                              
G_4+   0.00  0.00  0.00  0.00  0.00  0.00  0.00  0.00  0.00  0.00  0.00  0.00
G_5+   0.00  0.00  0.00  0.00  1.00 -1.00  0.00  0.00  0.00  0.00  1.00 -1.00
G_6+   0.00  0.00  0.00  0.00 -1.00  1.00  0.00  0.00  0.00  0.00 -1.00  1.00
G_4-   0.00  0.00  0.00  0.00  0.00  0.00  0.00  0.00  0.00  0.00  0.00  0.00
G_5-   0.00  0.00  0.00  0.00  1.00 -1.00  0.00  0.00  0.00  0.00 -1.00  1.00
G_6-   0.00  0.00  0.00  0.00 -1.00  1.00  0.00  0.00  0.00  0.00  1.00 -1.00

     the symmetry operations in each class and the name of the first element:

     E             1
                                                                 
     -E           -1
                                                                 
     2C3           3    4
                                                                 
     -2C3         -3   -4
                                                                 
     3C2'          2   -5   -6
                                                                 
     3C2'          5    6   -2
                                                                 
     i             7
                                                                 
     -i           -7
                                                                 
     2S6           9   10
                                                                 
     -2S6         -9  -10
                                                                 
     3s_v          8  -11  -12
                                                                 
     3s_v         11   12   -8
                                                                 

     Band symmetry, D_3d (-3m)  double point group:

     e(  1 -  2) =    -14.95260  eV     2   --> G_5+  L_4+     
     e(  1 -  2) =    -14.95260  eV     2   --> G_6+  L_5+     
     e(  3 -  4) =    -14.93952  eV     2   --> G_4+  L_6+     
     e(  5 -  6) =    -14.88551  eV     2   --> G_5-  L_4-     
     e(  5 -  6) =    -14.88551  eV     2   --> G_6-  L_5-     
     e(  7 -  8) =    -14.88111  eV     2   --> G_4-  L_6-     
     e(  9 - 10) =    -12.03797  eV     2   --> G_4+  L_6+     
     e( 11 - 12) =    -12.01517  eV     2   --> G_4-  L_6-     
     e( 13 - 14) =    -12.01406  eV     2   --> G_5+  L_4+     
     e( 13 - 14) =    -12.01406  eV     2   --> G_6+  L_5+     
     e( 15 - 16) =    -11.82110  eV     2   --> G_4+  L_6+     
     e( 17 - 18) =    -11.82041  eV     2   --> G_5-  L_4-     
     e( 17 - 18) =    -11.82041  eV     2   --> G_6-  L_5-     
     e( 19 - 20) =    -11.80967  eV     2   --> G_4-  L_6-     
     e( 21 - 22) =     -3.46730  eV     2   --> G_4+  L_6+     
     e( 23 - 24) =      1.82482  eV     2   --> G_4-  L_6-     
     e( 25 - 26) =      6.44437  eV     2   --> G_4+  L_6+     
     e( 27 - 28) =      8.64985  eV     2   --> G_4+  L_6+     
     e( 29 - 30) =      8.78908  eV     2   --> G_5+  L_4+     
     e( 29 - 30) =      8.78908  eV     2   --> G_6+  L_5+     
     e( 31 - 32) =     10.12476  eV     2   --> G_4-  L_6-     
     e( 33 - 34) =     12.49079  eV     2   --> G_4-  L_6-     
     e( 35 - 36) =     12.87239  eV     2   --> G_5-  L_4-     
     e( 35 - 36) =     12.87239  eV     2   --> G_6-  L_5-     
     e( 37 - 38) =     14.94526  eV     2   --> G_4-  L_6-     

 **************************************************************************

 **************************************************************************

                    xk=(   0.00000,   0.00000,   0.01002  )

     double point group C_3v (3m)  
     there are  6 classes and  3 irreducible representations
     the character table:

       E     -E    2C3   -2C3  3s_v  -3s_v
                                          
G_4    2.00 -2.00  1.00 -1.00  0.00  0.00
G_5    1.00 -1.00 -1.00  1.00  0.00  0.00
G_6    1.00 -1.00 -1.00  1.00  0.00  0.00

     imaginary part

       E     -E    2C3   -2C3  3s_v  -3s_v
                                          
G_4    0.00  0.00  0.00  0.00  0.00  0.00
G_5    0.00  0.00  0.00  0.00  1.00 -1.00
G_6    0.00  0.00  0.00  0.00 -1.00  1.00

     the symmetry operations in each class and the name of the first element:

     E             1
                                                                 
     -E           -1
                                                                 
     2C3           2    3
                                                                 
     -2C3         -2   -3
                                                                 
     3s_v          4   -5   -6
                                                                 
     3s_v          5    6   -4
                                                                 

     Band symmetry, C_3v (3m)   double point group:

     e(  1 -  2) =    -14.95259  eV     2   --> G_5   L_4      
     e(  1 -  2) =    -14.95259  eV     2   --> G_6   L_5      
     e(  3 -  4) =    -14.93951  eV     2   --> G_4   L_6      
     e(  5 -  6) =    -14.88552  eV     2   --> G_5   L_4      
     e(  5 -  6) =    -14.88552  eV     2   --> G_6   L_5      
     e(  7 -  8) =    -14.88111  eV     2   --> G_4   L_6      
     e(  9 - 10) =    -12.03796  eV     2   --> G_4   L_6      
     e( 11 - 12) =    -12.01515  eV     2   --> G_4   L_6      
     e( 13 - 14) =    -12.01404  eV     2   --> G_5   L_4      
     e( 13 - 14) =    -12.01404  eV     2   --> G_6   L_5      
     e( 15 - 16) =    -11.82111  eV     2   --> G_4   L_6      
     e( 17 - 18) =    -11.82043  eV     2   --> G_5   L_4      
     e( 17 - 18) =    -11.82043  eV     2   --> G_6   L_5      
     e( 19 - 20) =    -11.80969  eV     2   --> G_4   L_6      
     e( 21 - 22) =     -3.46681  eV     2   --> G_4   L_6      
     e( 23 - 24) =      1.82342  eV     2   --> G_4   L_6      
     e( 25 - 26) =      6.44488  eV     2   --> G_4   L_6      
     e( 27 - 28) =      8.64976  eV     2   --> G_4   L_6      
     e( 29 - 30) =      8.78923  eV     2   --> G_5   L_4      
     e( 29 - 30) =      8.78923  eV     2   --> G_6   L_5      
     e( 31 - 32) =     10.12393  eV     2   --> G_4   L_6      
     e( 33 - 34) =     12.48867  eV     2   --> G_4   L_6      
     e( 35 - 36) =     12.87029  eV     2   --> G_5   L_4      
     e( 35 - 36) =     12.87029  eV     2   --> G_6   L_5      
     e( 37 - 38) =     14.93645  eV     2   --> G_4   L_6      

 **************************************************************************

 **************************************************************************

                    xk=(   0.00000,   0.00000,   0.02003  )

     Band symmetry, C_3v (3m)   double point group:

     e(  1 -  2) =    -14.95257  eV     2   --> G_5   L_4      
     e(  1 -  2) =    -14.95257  eV     2   --> G_6   L_5      
     e(  3 -  4) =    -14.93947  eV     2   --> G_4   L_6      
     e(  5 -  6) =    -14.88553  eV     2   --> G_5   L_4      
     e(  5 -  6) =    -14.88553  eV     2   --> G_6   L_5      
     e(  7 -  8) =    -14.88113  eV     2   --> G_4   L_6      
     e(  9 - 10) =    -12.03791  eV     2   --> G_4   L_6      
     e( 11 - 12) =    -12.01508  eV     2   --> G_4   L_6      
     e( 13 - 14) =    -12.01397  eV     2   --> G_5   L_4      
     e( 13 - 14) =    -12.01397  eV     2   --> G_6   L_5      
     e( 15 - 16) =    -11.82117  eV     2   --> G_4   L_6      
     e( 17 - 18) =    -11.82052  eV     2   --> G_5   L_4      
     e( 17 - 18) =    -11.82052  eV     2   --> G_6   L_5      
     e( 19 - 20) =    -11.80977  eV     2   --> G_4   L_6      
     e( 21 - 22) =     -3.46532  eV     2   --> G_4   L_6      
     e( 23 - 24) =      1.81923  eV     2   --> G_4   L_6      
     e( 25 - 26) =      6.44639  eV     2   --> G_4   L_6      
     e( 27 - 28) =      8.64949  eV     2   --> G_4   L_6      
     e( 29 - 30) =      8.78969  eV     2   --> G_5   L_4      
     e( 29 - 30) =      8.78969  eV     2   --> G_6   L_5      
     e( 31 - 32) =     10.12146  eV     2   --> G_4   L_6      
     e( 33 - 34) =     12.48234  eV     2   --> G_4   L_6      
     e( 35 - 36) =     12.86401  eV     2   --> G_5   L_4      
     e( 35 - 36) =     12.86401  eV     2   --> G_6   L_5      
     e( 37 - 38) =     14.91132  eV     2   --> G_4   L_6      

 **************************************************************************

 **************************************************************************

                    xk=(   0.00000,   0.00000,   0.03005  )

     Band symmetry, C_3v (3m)   double point group:

     e(  1 -  2) =    -14.95253  eV     2   --> G_5   L_4      
     e(  1 -  2) =    -14.95253  eV     2   --> G_6   L_5      
     e(  3 -  4) =    -14.93942  eV     2   --> G_4   L_6      
     e(  5 -  6) =    -14.88554  eV     2   --> G_5   L_4      
     e(  5 -  6) =    -14.88554  eV     2   --> G_6   L_5      
     e(  7 -  8) =    -14.88115  eV     2   --> G_4   L_6      
     e(  9 - 10) =    -12.03784  eV     2   --> G_4   L_6      
     e( 11 - 12) =    -12.01498  eV     2   --> G_4   L_6      
     e( 13 - 14) =    -12.01386  eV     2   --> G_5   L_4      
     e( 13 - 14) =    -12.01386  eV     2   --> G_6   L_5      
     e( 15 - 16) =    -11.82126  eV     2   --> G_4   L_6      
     e( 17 - 18) =    -11.82065  eV     2   --> G_5   L_4      
     e( 17 - 18) =    -11.82065  eV     2   --> G_6   L_5      
     e( 19 - 20) =    -11.80989  eV     2   --> G_4   L_6      
     e( 21 - 22) =     -3.46285  eV     2   --> G_4   L_6      
     e( 23 - 24) =      1.81227  eV     2   --> G_4   L_6      
     e( 25 - 26) =      6.44890  eV     2   --> G_4   L_6      
     e( 27 - 28) =      8.64904  eV     2   --> G_4   L_6      
     e( 29 - 30) =      8.79046  eV     2   --> G_5   L_4      
     e( 29 - 30) =      8.79046  eV     2   --> G_6   L_5      
     e( 31 - 32) =     10.11737  eV     2   --> G_4   L_6      
     e( 33 - 34) =     12.47185  eV     2   --> G_4   L_6      
     e( 35 - 36) =     12.85360  eV     2   --> G_5   L_4      
     e( 35 - 36) =     12.85360  eV     2   --> G_6   L_5      
     e( 37 - 38) =     14.87384  eV     2   --> G_4   L_6      

 **************************************************************************

 **************************************************************************

                    xk=(   0.00000,   0.00000,   0.04006  )

     Band symmetry, C_3v (3m)   double point group:

     e(  1 -  2) =    -14.95248  eV     2   --> G_5   L_4      
     e(  1 -  2) =    -14.95248  eV     2   --> G_6   L_5      
     e(  3 -  4) =    -14.93934  eV     2   --> G_4   L_6      
     e(  5 -  6) =    -14.88557  eV     2   --> G_5   L_4      
     e(  5 -  6) =    -14.88557  eV     2   --> G_6   L_5      
     e(  7 -  8) =    -14.88118  eV     2   --> G_4   L_6      
     e(  9 - 10) =    -12.03773  eV     2   --> G_4   L_6      
     e( 11 - 12) =    -12.01483  eV     2   --> G_4   L_6      
     e( 13 - 14) =    -12.01370  eV     2   --> G_5   L_4      
     e( 13 - 14) =    -12.01370  eV     2   --> G_6   L_5      
     e( 15 - 16) =    -11.82139  eV     2   --> G_4   L_6      
     e( 17 - 18) =    -11.82084  eV     2   --> G_5   L_4      
     e( 17 - 18) =    -11.82084  eV     2   --> G_6   L_5      
     e( 19 - 20) =    -11.81006  eV     2   --> G_4   L_6      
     e( 21 - 22) =     -3.45940  eV     2   --> G_4   L_6      
     e( 23 - 24) =      1.80254  eV     2   --> G_4   L_6      
     e( 25 - 26) =      6.45241  eV     2   --> G_4   L_6      
     e( 27 - 28) =      8.64839  eV     2   --> G_4   L_6      
     e( 29 - 30) =      8.79154  eV     2   --> G_5   L_4      
     e( 29 - 30) =      8.79154  eV     2   --> G_6   L_5      
     e( 31 - 32) =     10.11168  eV     2   --> G_4   L_6      
     e( 33 - 34) =     12.45730  eV     2   --> G_4   L_6      
     e( 35 - 36) =     12.83915  eV     2   --> G_5   L_4      
     e( 35 - 36) =     12.83915  eV     2   --> G_6   L_5      
     e( 37 - 38) =     14.82907  eV     2   --> G_4   L_6      

 **************************************************************************

 **************************************************************************

                    xk=(   0.00000,   0.00000,   0.05008  )

     Band symmetry, C_3v (3m)   double point group:

     e(  1 -  2) =    -14.95241  eV     2   --> G_5   L_4      
     e(  1 -  2) =    -14.95241  eV     2   --> G_6   L_5      
     e(  3 -  4) =    -14.93924  eV     2   --> G_4   L_6      
     e(  5 -  6) =    -14.88560  eV     2   --> G_5   L_4      
     e(  5 -  6) =    -14.88560  eV     2   --> G_6   L_5      
     e(  7 -  8) =    -14.88122  eV     2   --> G_4   L_6      
     e(  9 - 10) =    -12.03759  eV     2   --> G_4   L_6      
     e( 11 - 12) =    -12.01464  eV     2   --> G_4   L_6      
     e( 13 - 14) =    -12.01350  eV     2   --> G_5   L_4      
     e( 13 - 14) =    -12.01350  eV     2   --> G_6   L_5      
     e( 15 - 16) =    -11.82156  eV     2   --> G_4   L_6      
     e( 17 - 18) =    -11.82108  eV     2   --> G_5   L_4      
     e( 17 - 18) =    -11.82108  eV     2   --> G_6   L_5      
     e( 19 - 20) =    -11.81028  eV     2   --> G_4   L_6      
     e( 21 - 22) =     -3.45496  eV     2   --> G_4   L_6      
     e( 23 - 24) =      1.79010  eV     2   --> G_4   L_6      
     e( 25 - 26) =      6.45689  eV     2   --> G_4   L_6      
     e( 27 - 28) =      8.64752  eV     2   --> G_4   L_6      
     e( 29 - 30) =      8.79294  eV     2   --> G_5   L_4      
     e( 29 - 30) =      8.79294  eV     2   --> G_6   L_5      
     e( 31 - 32) =     10.10444  eV     2   --> G_4   L_6      
     e( 33 - 34) =     12.43883  eV     2   --> G_4   L_6      
     e( 35 - 36) =     12.82075  eV     2   --> G_5   L_4      
     e( 35 - 36) =     12.82075  eV     2   --> G_6   L_5      
     e( 37 - 38) =     14.78104  eV     2   --> G_4   L_6      

 **************************************************************************

 **************************************************************************

                    xk=(   0.00000,   0.00000,   0.06009  )

     Band symmetry, C_3v (3m)   double point group:

     e(  1 -  2) =    -14.95232  eV     2   --> G_5   L_4      
     e(  1 -  2) =    -14.95232  eV     2   --> G_6   L_5      
     e(  3 -  4) =    -14.93911  eV     2   --> G_4   L_6      
     e(  5 -  6) =    -14.88564  eV     2   --> G_5   L_4      
     e(  5 -  6) =    -14.88564  eV     2   --> G_6   L_5      
     e(  7 -  8) =    -14.88128  eV     2   --> G_4   L_6      
     e(  9 - 10) =    -12.03743  eV     2   --> G_4   L_6      
     e( 11 - 12) =    -12.01441  eV     2   --> G_4   L_6      
     e( 13 - 14) =    -12.01325  eV     2   --> G_5   L_4      
     e( 13 - 14) =    -12.01325  eV     2   --> G_6   L_5      
     e( 15 - 16) =    -11.82176  eV     2   --> G_4   L_6      
     e( 17 - 18) =    -11.82137  eV     2   --> G_5   L_4      
     e( 17 - 18) =    -11.82137  eV     2   --> G_6   L_5      
     e( 19 - 20) =    -11.81055  eV     2   --> G_4   L_6      
     e( 21 - 22) =     -3.44954  eV     2   --> G_4   L_6      
     e( 23 - 24) =      1.77498  eV     2   --> G_4   L_6      
     e( 25 - 26) =      6.46233  eV     2   --> G_4   L_6      
     e( 27 - 28) =      8.64642  eV     2   --> G_4   L_6      
     e( 29 - 30) =      8.79465  eV     2   --> G_5   L_4      
     e( 29 - 30) =      8.79465  eV     2   --> G_6   L_5      
     e( 31 - 32) =     10.09571  eV     2   --> G_4   L_6      
     e( 33 - 34) =     12.41659  eV     2   --> G_4   L_6      
     e( 35 - 36) =     12.79855  eV     2   --> G_5   L_4      
     e( 35 - 36) =     12.79855  eV     2   --> G_6   L_5      
     e( 37 - 38) =     14.73232  eV     2   --> G_4   L_6      

 **************************************************************************

 **************************************************************************

                    xk=(   0.00000,   0.00000,   0.07011  )

     Band symmetry, C_3v (3m)   double point group:

     e(  1 -  2) =    -14.95222  eV     2   --> G_5   L_4      
     e(  1 -  2) =    -14.95222  eV     2   --> G_6   L_5      
     e(  3 -  4) =    -14.93897  eV     2   --> G_4   L_6      
     e(  5 -  6) =    -14.88569  eV     2   --> G_5   L_4      
     e(  5 -  6) =    -14.88569  eV     2   --> G_6   L_5      
     e(  7 -  8) =    -14.88134  eV     2   --> G_4   L_6      
     e(  9 - 10) =    -12.03723  eV     2   --> G_4   L_6      
     e( 11 - 12) =    -12.01413  eV     2   --> G_4   L_6      
     e( 13 - 14) =    -12.01295  eV     2   --> G_5   L_4      
     e( 13 - 14) =    -12.01295  eV     2   --> G_6   L_5      
     e( 15 - 16) =    -11.82200  eV     2   --> G_4   L_6      
     e( 17 - 18) =    -11.82172  eV     2   --> G_5   L_4      
     e( 17 - 18) =    -11.82172  eV     2   --> G_6   L_5      
     e( 19 - 20) =    -11.81086  eV     2   --> G_4   L_6      
     e( 21 - 22) =     -3.44314  eV     2   --> G_4   L_6      
     e( 23 - 24) =      1.75723  eV     2   --> G_4   L_6      
     e( 25 - 26) =      6.46871  eV     2   --> G_4   L_6      
     e( 27 - 28) =      8.64505  eV     2   --> G_4   L_6      
     e( 29 - 30) =      8.79668  eV     2   --> G_5   L_4      
     e( 29 - 30) =      8.79668  eV     2   --> G_6   L_5      
     e( 31 - 32) =     10.08554  eV     2   --> G_4   L_6      
     e( 33 - 34) =     12.39078  eV     2   --> G_4   L_6      
     e( 35 - 36) =     12.77271  eV     2   --> G_5   L_4      
     e( 35 - 36) =     12.77271  eV     2   --> G_6   L_5      
     e( 37 - 38) =     14.68446  eV     2   --> G_4   L_6      

 **************************************************************************

 **************************************************************************

                    xk=(   0.00000,   0.00000,   0.08012  )

     Band symmetry, C_3v (3m)   double point group:

     e(  1 -  2) =    -14.95211  eV     2   --> G_5   L_4      
     e(  1 -  2) =    -14.95211  eV     2   --> G_6   L_5      
     e(  3 -  4) =    -14.93880  eV     2   --> G_4   L_6      
     e(  5 -  6) =    -14.88574  eV     2   --> G_5   L_4      
     e(  5 -  6) =    -14.88574  eV     2   --> G_6   L_5      
     e(  7 -  8) =    -14.88141  eV     2   --> G_4   L_6      
     e(  9 - 10) =    -12.03700  eV     2   --> G_4   L_6      
     e( 11 - 12) =    -12.01382  eV     2   --> G_4   L_6      
     e( 13 - 14) =    -12.01262  eV     2   --> G_5   L_4      
     e( 13 - 14) =    -12.01262  eV     2   --> G_6   L_5      
     e( 15 - 16) =    -11.82228  eV     2   --> G_4   L_6      
     e( 17 - 18) =    -11.82212  eV     2   --> G_5   L_4      
     e( 17 - 18) =    -11.82212  eV     2   --> G_6   L_5      
     e( 19 - 20) =    -11.81122  eV     2   --> G_4   L_6      
     e( 21 - 22) =     -3.43577  eV     2   --> G_4   L_6      
     e( 23 - 24) =      1.73692  eV     2   --> G_4   L_6      
     e( 25 - 26) =      6.47600  eV     2   --> G_4   L_6      
     e( 27 - 28) =      8.64339  eV     2   --> G_4   L_6      
     e( 29 - 30) =      8.79904  eV     2   --> G_5   L_4      
     e( 29 - 30) =      8.79904  eV     2   --> G_6   L_5      
     e( 31 - 32) =     10.07401  eV     2   --> G_4   L_6      
     e( 33 - 34) =     12.36158  eV     2   --> G_4   L_6      
     e( 35 - 36) =     12.74340  eV     2   --> G_5   L_4      
     e( 35 - 36) =     12.74340  eV     2   --> G_6   L_5      
     e( 37 - 38) =     14.63843  eV     2   --> G_4   L_6      

 **************************************************************************

 **************************************************************************

                    xk=(   0.00000,   0.00000,   0.09014  )

     Band symmetry, C_3v (3m)   double point group:

     e(  1 -  2) =    -14.95198  eV     2   --> G_5   L_4      
     e(  1 -  2) =    -14.95198  eV     2   --> G_6   L_5      
     e(  3 -  4) =    -14.93862  eV     2   --> G_4   L_6      
     e(  5 -  6) =    -14.88580  eV     2   --> G_5   L_4      
     e(  5 -  6) =    -14.88580  eV     2   --> G_6   L_5      
     e(  7 -  8) =    -14.88149  eV     2   --> G_4   L_6      
     e(  9 - 10) =    -12.03675  eV     2   --> G_4   L_6      
     e( 11 - 12) =    -12.01347  eV     2   --> G_4   L_6      
     e( 13 - 14) =    -12.01224  eV     2   --> G_5   L_4      
     e( 13 - 14) =    -12.01224  eV     2   --> G_6   L_5      
     e( 15 - 18) =    -11.82259  eV     4   --> G_4   L_6      
     e( 15 - 18) =    -11.82259  eV     4   --> G_5   L_4      
     e( 15 - 18) =    -11.82259  eV     4   --> G_6   L_5      
     e( 19 - 20) =    -11.81163  eV     2   --> G_4   L_6      
     e( 21 - 22) =     -3.42742  eV     2   --> G_4   L_6      
     e( 23 - 24) =      1.71409  eV     2   --> G_4   L_6      
     e( 25 - 26) =      6.48417  eV     2   --> G_4   L_6      
     e( 27 - 28) =      8.64139  eV     2   --> G_4   L_6      
     e( 29 - 30) =      8.80173  eV     2   --> G_5   L_4      
     e( 29 - 30) =      8.80173  eV     2   --> G_6   L_5      
     e( 31 - 32) =     10.06121  eV     2   --> G_4   L_6      
     e( 33 - 34) =     12.32922  eV     2   --> G_4   L_6      
     e( 35 - 36) =     12.71083  eV     2   --> G_5   L_4      
     e( 35 - 36) =     12.71083  eV     2   --> G_6   L_5      
     e( 37 - 38) =     14.59486  eV     2   --> G_4   L_6      

 **************************************************************************

 **************************************************************************

                    xk=(   0.00000,   0.00000,   0.10016  )

     Band symmetry, C_3v (3m)   double point group:

     e(  1 -  2) =    -14.95183  eV     2   --> G_5   L_4      
     e(  1 -  2) =    -14.95183  eV     2   --> G_6   L_5      
     e(  3 -  4) =    -14.93841  eV     2   --> G_4   L_6      
     e(  5 -  6) =    -14.88587  eV     2   --> G_5   L_4      
     e(  5 -  6) =    -14.88587  eV     2   --> G_6   L_5      
     e(  7 -  8) =    -14.88158  eV     2   --> G_4   L_6      
     e(  9 - 10) =    -12.03646  eV     2   --> G_4   L_6      
     e( 11 - 12) =    -12.01308  eV     2   --> G_4   L_6      
     e( 13 - 14) =    -12.01181  eV     2   --> G_5   L_4      
     e( 13 - 14) =    -12.01181  eV     2   --> G_6   L_5      
     e( 15 - 16) =    -11.82308  eV     2   --> G_5   L_4      
     e( 15 - 16) =    -11.82308  eV     2   --> G_6   L_5      
     e( 17 - 18) =    -11.82294  eV     2   --> G_4   L_6      
     e( 19 - 20) =    -11.81208  eV     2   --> G_4   L_6      
     e( 21 - 22) =     -3.41812  eV     2   --> G_4   L_6      
     e( 23 - 24) =      1.68883  eV     2   --> G_4   L_6      
     e( 25 - 26) =      6.49319  eV     2   --> G_4   L_6      
     e( 27 - 28) =      8.63903  eV     2   --> G_4   L_6      
     e( 29 - 30) =      8.80475  eV     2   --> G_5   L_4      
     e( 29 - 30) =      8.80475  eV     2   --> G_6   L_5      
     e( 31 - 32) =     10.04723  eV     2   --> G_4   L_6      
     e( 33 - 34) =     12.29391  eV     2   --> G_4   L_6      
     e( 35 - 36) =     12.67521  eV     2   --> G_5   L_4      
     e( 35 - 36) =     12.67521  eV     2   --> G_6   L_5      
     e( 37 - 38) =     14.55419  eV     2   --> G_4   L_6      

 **************************************************************************

 **************************************************************************

                    xk=(   0.00000,   0.00000,   0.11017  )

     Band symmetry, C_3v (3m)   double point group:

     e(  1 -  2) =    -14.95167  eV     2   --> G_5   L_4      
     e(  1 -  2) =    -14.95167  eV     2   --> G_6   L_5      
     e(  3 -  4) =    -14.93818  eV     2   --> G_4   L_6      
     e(  5 -  6) =    -14.88594  eV     2   --> G_5   L_4      
     e(  5 -  6) =    -14.88594  eV     2   --> G_6   L_5      
     e(  7 -  8) =    -14.88168  eV     2   --> G_4   L_6      
     e(  9 - 10) =    -12.03615  eV     2   --> G_4   L_6      
     e( 11 - 12) =    -12.01264  eV     2   --> G_4   L_6      
     e( 13 - 14) =    -12.01134  eV     2   --> G_5   L_4      
     e( 13 - 14) =    -12.01134  eV     2   --> G_6   L_5      
     e( 15 - 16) =    -11.82363  eV     2   --> G_5   L_4      
     e( 15 - 16) =    -11.82363  eV     2   --> G_6   L_5      
     e( 17 - 18) =    -11.82332  eV     2   --> G_4   L_6      
     e( 19 - 20) =    -11.81258  eV     2   --> G_4   L_6      
     e( 21 - 22) =     -3.40785  eV     2   --> G_4   L_6      
     e( 23 - 24) =      1.66122  eV     2   --> G_4   L_6      
     e( 25 - 26) =      6.50304  eV     2   --> G_4   L_6      
     e( 27 - 28) =      8.63627  eV     2   --> G_4   L_6      
     e( 29 - 30) =      8.80811  eV     2   --> G_5   L_4      
     e( 29 - 30) =      8.80811  eV     2   --> G_6   L_5      
     e( 31 - 32) =     10.03215  eV     2   --> G_4   L_6      
     e( 33 - 34) =     12.25590  eV     2   --> G_4   L_6      
     e( 35 - 36) =     12.63675  eV     2   --> G_5   L_4      
     e( 35 - 36) =     12.63675  eV     2   --> G_6   L_5      
     e( 37 - 38) =     14.51673  eV     2   --> G_4   L_6      

 **************************************************************************

 **************************************************************************

                    xk=(   0.00000,   0.00000,   0.12019  )

     Band symmetry, C_3v (3m)   double point group:

     e(  1 -  2) =    -14.95150  eV     2   --> G_5   L_4      
     e(  1 -  2) =    -14.95150  eV     2   --> G_6   L_5      
     e(  3 -  4) =    -14.93793  eV     2   --> G_4   L_6      
     e(  5 -  6) =    -14.88602  eV     2   --> G_5   L_4      
     e(  5 -  6) =    -14.88602  eV     2   --> G_6   L_5      
     e(  7 -  8) =    -14.88179  eV     2   --> G_4   L_6      
     e(  9 - 10) =    -12.03581  eV     2   --> G_4   L_6      
     e( 11 - 12) =    -12.01217  eV     2   --> G_4   L_6      
     e( 13 - 14) =    -12.01083  eV     2   --> G_5   L_4      
     e( 13 - 14) =    -12.01083  eV     2   --> G_6   L_5      
     e( 15 - 16) =    -11.82423  eV     2   --> G_5   L_4      
     e( 15 - 16) =    -11.82423  eV     2   --> G_6   L_5      
     e( 17 - 18) =    -11.82374  eV     2   --> G_4   L_6      
     e( 19 - 20) =    -11.81312  eV     2   --> G_4   L_6      
     e( 21 - 22) =     -3.39663  eV     2   --> G_4   L_6      
     e( 23 - 24) =      1.63133  eV     2   --> G_4   L_6      
     e( 25 - 26) =      6.51368  eV     2   --> G_4   L_6      
     e( 27 - 28) =      8.63306  eV     2   --> G_4   L_6      
     e( 29 - 30) =      8.81181  eV     2   --> G_5   L_4      
     e( 29 - 30) =      8.81181  eV     2   --> G_6   L_5      
     e( 31 - 32) =     10.01609  eV     2   --> G_4   L_6      
     e( 33 - 34) =     12.21540  eV     2   --> G_4   L_6      
     e( 35 - 36) =     12.59567  eV     2   --> G_5   L_4      
     e( 35 - 36) =     12.59567  eV     2   --> G_6   L_5      
     e( 37 - 38) =     14.48272  eV     2   --> G_4   L_6      

 **************************************************************************

 **************************************************************************

                    xk=(   0.00000,   0.00000,   0.13020  )

     Band symmetry, C_3v (3m)   double point group:

     e(  1 -  2) =    -14.95132  eV     2   --> G_5   L_4      
     e(  1 -  2) =    -14.95132  eV     2   --> G_6   L_5      
     e(  3 -  4) =    -14.93766  eV     2   --> G_4   L_6      
     e(  5 -  6) =    -14.88611  eV     2   --> G_5   L_4      
     e(  5 -  6) =    -14.88611  eV     2   --> G_6   L_5      
     e(  7 -  8) =    -14.88191  eV     2   --> G_4   L_6      
     e(  9 - 10) =    -12.03544  eV     2   --> G_4   L_6      
     e( 11 - 12) =    -12.01167  eV     2   --> G_4   L_6      
     e( 13 - 14) =    -12.01028  eV     2   --> G_5   L_4      
     e( 13 - 14) =    -12.01028  eV     2   --> G_6   L_5      
     e( 15 - 16) =    -11.82488  eV     2   --> G_5   L_4      
     e( 15 - 16) =    -11.82488  eV     2   --> G_6   L_5      
     e( 17 - 18) =    -11.82419  eV     2   --> G_4   L_6      
     e( 19 - 20) =    -11.81370  eV     2   --> G_4   L_6      
     e( 21 - 22) =     -3.38446  eV     2   --> G_4   L_6      
     e( 23 - 24) =      1.59926  eV     2   --> G_4   L_6      
     e( 25 - 26) =      6.52507  eV     2   --> G_4   L_6      
     e( 27 - 28) =      8.62935  eV     2   --> G_4   L_6      
     e( 29 - 30) =      8.81587  eV     2   --> G_5   L_4      
     e( 29 - 30) =      8.81587  eV     2   --> G_6   L_5      
     e( 31 - 32) =      9.99916  eV     2   --> G_4   L_6      
     e( 33 - 34) =     12.17264  eV     2   --> G_4   L_6      
     e( 35 - 36) =     12.55221  eV     2   --> G_5   L_4      
     e( 35 - 36) =     12.55221  eV     2   --> G_6   L_5      
     e( 37 - 38) =     14.45232  eV     2   --> G_4   L_6      

 **************************************************************************

 **************************************************************************

                    xk=(   0.00000,   0.00000,   0.14022  )

     Band symmetry, C_3v (3m)   double point group:

     e(  1 -  2) =    -14.95112  eV     2   --> G_5   L_4      
     e(  1 -  2) =    -14.95112  eV     2   --> G_6   L_5      
     e(  3 -  4) =    -14.93737  eV     2   --> G_4   L_6      
     e(  5 -  6) =    -14.88620  eV     2   --> G_5   L_4      
     e(  5 -  6) =    -14.88620  eV     2   --> G_6   L_5      
     e(  7 -  8) =    -14.88204  eV     2   --> G_4   L_6      
     e(  9 - 10) =    -12.03504  eV     2   --> G_4   L_6      
     e( 11 - 12) =    -12.01113  eV     2   --> G_4   L_6      
     e( 13 - 14) =    -12.00969  eV     2   --> G_5   L_4      
     e( 13 - 14) =    -12.00969  eV     2   --> G_6   L_5      
     e( 15 - 16) =    -11.82558  eV     2   --> G_5   L_4      
     e( 15 - 16) =    -11.82558  eV     2   --> G_6   L_5      
     e( 17 - 18) =    -11.82468  eV     2   --> G_4   L_6      
     e( 19 - 20) =    -11.81432  eV     2   --> G_4   L_6      
     e( 21 - 22) =     -3.37136  eV     2   --> G_4   L_6      
     e( 23 - 24) =      1.56510  eV     2   --> G_4   L_6      
     e( 25 - 26) =      6.53719  eV     2   --> G_4   L_6      
     e( 27 - 28) =      8.62511  eV     2   --> G_4   L_6      
     e( 29 - 30) =      8.82029  eV     2   --> G_5   L_4      
     e( 29 - 30) =      8.82029  eV     2   --> G_6   L_5      
     e( 31 - 32) =      9.98145  eV     2   --> G_4   L_6      
     e( 33 - 34) =     12.12784  eV     2   --> G_4   L_6      
     e( 35 - 36) =     12.50658  eV     2   --> G_5   L_4      
     e( 35 - 36) =     12.50658  eV     2   --> G_6   L_5      
     e( 37 - 38) =     14.42567  eV     2   --> G_4   L_6      

 **************************************************************************

 **************************************************************************

                    xk=(   0.00000,   0.00000,   0.15023  )

     Band symmetry, C_3v (3m)   double point group:

     e(  1 -  2) =    -14.95091  eV     2   --> G_5   L_4      
     e(  1 -  2) =    -14.95091  eV     2   --> G_6   L_5      
     e(  3 -  4) =    -14.93706  eV     2   --> G_4   L_6      
     e(  5 -  6) =    -14.88630  eV     2   --> G_5   L_4      
     e(  5 -  6) =    -14.88630  eV     2   --> G_6   L_5      
     e(  7 -  8) =    -14.88217  eV     2   --> G_4   L_6      
     e(  9 - 10) =    -12.03462  eV     2   --> G_4   L_6      
     e( 11 - 12) =    -12.01055  eV     2   --> G_4   L_6      
     e( 13 - 14) =    -12.00906  eV     2   --> G_5   L_4      
     e( 13 - 14) =    -12.00906  eV     2   --> G_6   L_5      
     e( 15 - 16) =    -11.82633  eV     2   --> G_5   L_4      
     e( 15 - 16) =    -11.82633  eV     2   --> G_6   L_5      
     e( 17 - 18) =    -11.82519  eV     2   --> G_4   L_6      
     e( 19 - 20) =    -11.81499  eV     2   --> G_4   L_6      
     e( 21 - 22) =     -3.35733  eV     2   --> G_4   L_6      
     e( 23 - 24) =      1.52894  eV     2   --> G_4   L_6      
     e( 25 - 26) =      6.55000  eV     2   --> G_4   L_6      
     e( 27 - 28) =      8.62028  eV     2   --> G_4   L_6      
     e( 29 - 30) =      8.82508  eV     2   --> G_5   L_4      
     e( 29 - 30) =      8.82508  eV     2   --> G_6   L_5      
     e( 31 - 32) =      9.96308  eV     2   --> G_4   L_6      
     e( 33 - 34) =     12.08122  eV     2   --> G_4   L_6      
     e( 35 - 36) =     12.45900  eV     2   --> G_5   L_4      
     e( 35 - 36) =     12.45900  eV     2   --> G_6   L_5      
     e( 37 - 38) =     14.40286  eV     2   --> G_4   L_6      

 **************************************************************************

 **************************************************************************

                    xk=(   0.00000,   0.00000,   0.16025  )

     Band symmetry, C_3v (3m)   double point group:

     e(  1 -  2) =    -14.95068  eV     2   --> G_5   L_4      
     e(  1 -  2) =    -14.95068  eV     2   --> G_6   L_5      
     e(  3 -  4) =    -14.93673  eV     2   --> G_4   L_6      
     e(  5 -  6) =    -14.88641  eV     2   --> G_5   L_4      
     e(  5 -  6) =    -14.88641  eV     2   --> G_6   L_5      
     e(  7 -  8) =    -14.88232  eV     2   --> G_4   L_6      
     e(  9 - 10) =    -12.03417  eV     2   --> G_4   L_6      
     e( 11 - 12) =    -12.00994  eV     2   --> G_4   L_6      
     e( 13 - 14) =    -12.00838  eV     2   --> G_5   L_4      
     e( 13 - 14) =    -12.00838  eV     2   --> G_6   L_5      
     e( 15 - 16) =    -11.82712  eV     2   --> G_5   L_4      
     e( 15 - 16) =    -11.82712  eV     2   --> G_6   L_5      
     e( 17 - 18) =    -11.82574  eV     2   --> G_4   L_6      
     e( 19 - 20) =    -11.81568  eV     2   --> G_4   L_6      
     e( 21 - 22) =     -3.34238  eV     2   --> G_4   L_6      
     e( 23 - 24) =      1.49088  eV     2   --> G_4   L_6      
     e( 25 - 26) =      6.56347  eV     2   --> G_4   L_6      
     e( 27 - 28) =      8.61483  eV     2   --> G_4   L_6      
     e( 29 - 30) =      8.83024  eV     2   --> G_5   L_4      
     e( 29 - 30) =      8.83024  eV     2   --> G_6   L_5      
     e( 31 - 32) =      9.94418  eV     2   --> G_4   L_6      
     e( 33 - 34) =     12.03299  eV     2   --> G_4   L_6      
     e( 35 - 36) =     12.40969  eV     2   --> G_5   L_4      
     e( 35 - 36) =     12.40969  eV     2   --> G_6   L_5      
     e( 37 - 38) =     14.38397  eV     2   --> G_4   L_6      

 **************************************************************************

 **************************************************************************

                    xk=(   0.00000,   0.00000,   0.17026  )

     Band symmetry, C_3v (3m)   double point group:

     e(  1 -  2) =    -14.95045  eV     2   --> G_5   L_4      
     e(  1 -  2) =    -14.95045  eV     2   --> G_6   L_5      
     e(  3 -  4) =    -14.93639  eV     2   --> G_4   L_6      
     e(  5 -  6) =    -14.88652  eV     2   --> G_5   L_4      
     e(  5 -  6) =    -14.88652  eV     2   --> G_6   L_5      
     e(  7 -  8) =    -14.88247  eV     2   --> G_4   L_6      
     e(  9 - 10) =    -12.03370  eV     2   --> G_4   L_6      
     e( 11 - 12) =    -12.00929  eV     2   --> G_4   L_6      
     e( 13 - 14) =    -12.00767  eV     2   --> G_5   L_4      
     e( 13 - 14) =    -12.00767  eV     2   --> G_6   L_5      
     e( 15 - 16) =    -11.82795  eV     2   --> G_5   L_4      
     e( 15 - 16) =    -11.82795  eV     2   --> G_6   L_5      
     e( 17 - 18) =    -11.82632  eV     2   --> G_4   L_6      
     e( 19 - 20) =    -11.81642  eV     2   --> G_4   L_6      
     e( 21 - 22) =     -3.32652  eV     2   --> G_4   L_6      
     e( 23 - 24) =      1.45102  eV     2   --> G_4   L_6      
     e( 25 - 26) =      6.57757  eV     2   --> G_4   L_6      
     e( 27 - 28) =      8.60870  eV     2   --> G_4   L_6      
     e( 29 - 30) =      8.83578  eV     2   --> G_5   L_4      
     e( 29 - 30) =      8.83578  eV     2   --> G_6   L_5      
     e( 31 - 32) =      9.92484  eV     2   --> G_4   L_6      
     e( 33 - 34) =     11.98335  eV     2   --> G_4   L_6      
     e( 35 - 36) =     12.35885  eV     2   --> G_5   L_4      
     e( 35 - 36) =     12.35885  eV     2   --> G_6   L_5      
     e( 37 - 38) =     14.36905  eV     2   --> G_4   L_6      

 **************************************************************************

 **************************************************************************

                    xk=(   0.00000,   0.00000,   0.18028  )

     Band symmetry, C_3v (3m)   double point group:

     e(  1 -  2) =    -14.95020  eV     2   --> G_5   L_4      
     e(  1 -  2) =    -14.95020  eV     2   --> G_6   L_5      
     e(  3 -  4) =    -14.93603  eV     2   --> G_4   L_6      
     e(  5 -  6) =    -14.88664  eV     2   --> G_5   L_4      
     e(  5 -  6) =    -14.88664  eV     2   --> G_6   L_5      
     e(  7 -  8) =    -14.88264  eV     2   --> G_4   L_6      
     e(  9 - 10) =    -12.03320  eV     2   --> G_4   L_6      
     e( 11 - 12) =    -12.00862  eV     2   --> G_4   L_6      
     e( 13 - 14) =    -12.00692  eV     2   --> G_5   L_4      
     e( 13 - 14) =    -12.00692  eV     2   --> G_6   L_5      
     e( 15 - 16) =    -11.82883  eV     2   --> G_5   L_4      
     e( 15 - 16) =    -11.82883  eV     2   --> G_6   L_5      
     e( 17 - 18) =    -11.82693  eV     2   --> G_4   L_6      
     e( 19 - 20) =    -11.81719  eV     2   --> G_4   L_6      
     e( 21 - 22) =     -3.30976  eV     2   --> G_4   L_6      
     e( 23 - 24) =      1.40946  eV     2   --> G_4   L_6      
     e( 25 - 26) =      6.59226  eV     2   --> G_4   L_6      
     e( 27 - 28) =      8.60186  eV     2   --> G_4   L_6      
     e( 29 - 30) =      8.84170  eV     2   --> G_5   L_4      
     e( 29 - 30) =      8.84170  eV     2   --> G_6   L_5      
     e( 31 - 32) =      9.90519  eV     2   --> G_4   L_6      
     e( 33 - 34) =     11.93249  eV     2   --> G_4   L_6      
     e( 35 - 36) =     12.30667  eV     2   --> G_5   L_4      
     e( 35 - 36) =     12.30667  eV     2   --> G_6   L_5      
     e( 37 - 38) =     14.35811  eV     2   --> G_4   L_6      

 **************************************************************************

 **************************************************************************

                    xk=(   0.00000,   0.00000,   0.19030  )

     Band symmetry, C_3v (3m)   double point group:

     e(  1 -  2) =    -14.94994  eV     2   --> G_5   L_4      
     e(  1 -  2) =    -14.94994  eV     2   --> G_6   L_5      
     e(  3 -  4) =    -14.93565  eV     2   --> G_4   L_6      
     e(  5 -  6) =    -14.88676  eV     2   --> G_5   L_4      
     e(  5 -  6) =    -14.88676  eV     2   --> G_6   L_5      
     e(  7 -  8) =    -14.88281  eV     2   --> G_4   L_6      
     e(  9 - 10) =    -12.03267  eV     2   --> G_4   L_6      
     e( 11 - 12) =    -12.00791  eV     2   --> G_4   L_6      
     e( 13 - 14) =    -12.00613  eV     2   --> G_5   L_4      
     e( 13 - 14) =    -12.00613  eV     2   --> G_6   L_5      
     e( 15 - 16) =    -11.82975  eV     2   --> G_5   L_4      
     e( 15 - 16) =    -11.82975  eV     2   --> G_6   L_5      
     e( 17 - 18) =    -11.82757  eV     2   --> G_4   L_6      
     e( 19 - 20) =    -11.81799  eV     2   --> G_4   L_6      
     e( 21 - 22) =     -3.29213  eV     2   --> G_4   L_6      
     e( 23 - 24) =      1.36630  eV     2   --> G_4   L_6      
     e( 25 - 26) =      6.60752  eV     2   --> G_4   L_6      
     e( 27 - 28) =      8.59425  eV     2   --> G_4   L_6      
     e( 29 - 30) =      8.84802  eV     2   --> G_5   L_4      
     e( 29 - 30) =      8.84802  eV     2   --> G_6   L_5      
     e( 31 - 32) =      9.88535  eV     2   --> G_4   L_6      
     e( 33 - 34) =     11.88060  eV     2   --> G_4   L_6      
     e( 35 - 36) =     12.25335  eV     2   --> G_5   L_4      
     e( 35 - 36) =     12.25335  eV     2   --> G_6   L_5      
     e( 37 - 38) =     14.35119  eV     2   --> G_4   L_6      

 **************************************************************************

 **************************************************************************

                    xk=(   0.00000,   0.00000,   0.20031  )

     Band symmetry, C_3v (3m)   double point group:

     e(  1 -  2) =    -14.94967  eV     2   --> G_5   L_4      
     e(  1 -  2) =    -14.94967  eV     2   --> G_6   L_5      
     e(  3 -  4) =    -14.93525  eV     2   --> G_4   L_6      
     e(  5 -  6) =    -14.88689  eV     2   --> G_5   L_4      
     e(  5 -  6) =    -14.88689  eV     2   --> G_6   L_5      
     e(  7 -  8) =    -14.88300  eV     2   --> G_4   L_6      
     e(  9 - 10) =    -12.03213  eV     2   --> G_4   L_6      
     e( 11 - 12) =    -12.00717  eV     2   --> G_4   L_6      
     e( 13 - 14) =    -12.00531  eV     2   --> G_5   L_4      
     e( 13 - 14) =    -12.00531  eV     2   --> G_6   L_5      
     e( 15 - 16) =    -11.83072  eV     2   --> G_5   L_4      
     e( 15 - 16) =    -11.83072  eV     2   --> G_6   L_5      
     e( 17 - 18) =    -11.82824  eV     2   --> G_4   L_6      
     e( 19 - 20) =    -11.81883  eV     2   --> G_4   L_6      
     e( 21 - 22) =     -3.27362  eV     2   --> G_4   L_6      
     e( 23 - 24) =      1.32166  eV     2   --> G_4   L_6      
     e( 25 - 26) =      6.62332  eV     2   --> G_4   L_6      
     e( 27 - 28) =      8.58585  eV     2   --> G_4   L_6      
     e( 29 - 30) =      8.85475  eV     2   --> G_5   L_4      
     e( 29 - 30) =      8.85475  eV     2   --> G_6   L_5      
     e( 31 - 32) =      9.86541  eV     2   --> G_4   L_6      
     e( 33 - 34) =     11.82786  eV     2   --> G_4   L_6      
     e( 35 - 36) =     12.19905  eV     2   --> G_5   L_4      
     e( 35 - 36) =     12.19905  eV     2   --> G_6   L_5      
     e( 37 - 38) =     14.34827  eV     2   --> G_4   L_6      

 **************************************************************************

 **************************************************************************

                    xk=(   0.00000,   0.00000,   0.21033  )

     Band symmetry, C_3v (3m)   double point group:

     e(  1 -  2) =    -14.94940  eV     2   --> G_5   L_4      
     e(  1 -  2) =    -14.94940  eV     2   --> G_6   L_5      
     e(  3 -  4) =    -14.93484  eV     2   --> G_4   L_6      
     e(  5 -  6) =    -14.88703  eV     2   --> G_5   L_4      
     e(  5 -  6) =    -14.88703  eV     2   --> G_6   L_5      
     e(  7 -  8) =    -14.88319  eV     2   --> G_4   L_6      
     e(  9 - 10) =    -12.03156  eV     2   --> G_4   L_6      
     e( 11 - 12) =    -12.00641  eV     2   --> G_4   L_6      
     e( 13 - 14) =    -12.00445  eV     2   --> G_5   L_4      
     e( 13 - 14) =    -12.00445  eV     2   --> G_6   L_5      
     e( 15 - 16) =    -11.83172  eV     2   --> G_5   L_4      
     e( 15 - 16) =    -11.83172  eV     2   --> G_6   L_5      
     e( 17 - 18) =    -11.82893  eV     2   --> G_4   L_6      
     e( 19 - 20) =    -11.81969  eV     2   --> G_4   L_6      
     e( 21 - 22) =     -3.25425  eV     2   --> G_4   L_6      
     e( 23 - 24) =      1.27563  eV     2   --> G_4   L_6      
     e( 25 - 26) =      6.63963  eV     2   --> G_4   L_6      
     e( 27 - 28) =      8.57661  eV     2   --> G_4   L_6      
     e( 29 - 30) =      8.86188  eV     2   --> G_5   L_4      
     e( 29 - 30) =      8.86188  eV     2   --> G_6   L_5      
     e( 31 - 32) =      9.84550  eV     2   --> G_4   L_6      
     e( 33 - 34) =     11.77442  eV     2   --> G_4   L_6      
     e( 35 - 36) =     12.14395  eV     2   --> G_5   L_4      
     e( 35 - 36) =     12.14395  eV     2   --> G_6   L_5      
     e( 37 - 38) =     14.34933  eV     2   --> G_4   L_6      

 **************************************************************************

 **************************************************************************

                    xk=(   0.00000,   0.00000,   0.22034  )

     Band symmetry, C_3v (3m)   double point group:

     e(  1 -  2) =    -14.94911  eV     2   --> G_5   L_4      
     e(  1 -  2) =    -14.94911  eV     2   --> G_6   L_5      
     e(  3 -  4) =    -14.93442  eV     2   --> G_4   L_6      
     e(  5 -  6) =    -14.88717  eV     2   --> G_5   L_4      
     e(  5 -  6) =    -14.88717  eV     2   --> G_6   L_5      
     e(  7 -  8) =    -14.88339  eV     2   --> G_4   L_6      
     e(  9 - 10) =    -12.03097  eV     2   --> G_4   L_6      
     e( 11 - 12) =    -12.00562  eV     2   --> G_4   L_6      
     e( 13 - 14) =    -12.00356  eV     2   --> G_5   L_4      
     e( 13 - 14) =    -12.00356  eV     2   --> G_6   L_5      
     e( 15 - 16) =    -11.83276  eV     2   --> G_5   L_4      
     e( 15 - 16) =    -11.83276  eV     2   --> G_6   L_5      
     e( 17 - 18) =    -11.82965  eV     2   --> G_4   L_6      
     e( 19 - 20) =    -11.82059  eV     2   --> G_4   L_6      
     e( 21 - 22) =     -3.23405  eV     2   --> G_4   L_6      
     e( 23 - 24) =      1.22831  eV     2   --> G_4   L_6      
     e( 25 - 26) =      6.65642  eV     2   --> G_4   L_6      
     e( 27 - 28) =      8.56650  eV     2   --> G_4   L_6      
     e( 29 - 30) =      8.86942  eV     2   --> G_5   L_4      
     e( 29 - 30) =      8.86942  eV     2   --> G_6   L_5      
     e( 31 - 32) =      9.82571  eV     2   --> G_4   L_6      
     e( 33 - 34) =     11.72044  eV     2   --> G_4   L_6      
     e( 35 - 36) =     12.08821  eV     2   --> G_5   L_4      
     e( 35 - 36) =     12.08821  eV     2   --> G_6   L_5      
     e( 37 - 38) =     14.35435  eV     2   --> G_4   L_6      

 **************************************************************************

 **************************************************************************

                    xk=(   0.00000,   0.00000,   0.23036  )

     Band symmetry, C_3v (3m)   double point group:

     e(  1 -  2) =    -14.94882  eV     2   --> G_5   L_4      
     e(  1 -  2) =    -14.94882  eV     2   --> G_6   L_5      
     e(  3 -  4) =    -14.93398  eV     2   --> G_4   L_6      
     e(  5 -  6) =    -14.88731  eV     2   --> G_5   L_4      
     e(  5 -  6) =    -14.88731  eV     2   --> G_6   L_5      
     e(  7 -  8) =    -14.88360  eV     2   --> G_4   L_6      
     e(  9 - 10) =    -12.03037  eV     2   --> G_4   L_6      
     e( 11 - 12) =    -12.00481  eV     2   --> G_4   L_6      
     e( 13 - 14) =    -12.00264  eV     2   --> G_5   L_4      
     e( 13 - 14) =    -12.00264  eV     2   --> G_6   L_5      
     e( 15 - 16) =    -11.83383  eV     2   --> G_5   L_4      
     e( 15 - 16) =    -11.83383  eV     2   --> G_6   L_5      
     e( 17 - 18) =    -11.83039  eV     2   --> G_4   L_6      
     e( 19 - 20) =    -11.82150  eV     2   --> G_4   L_6      
     e( 21 - 22) =     -3.21303  eV     2   --> G_4   L_6      
     e( 23 - 24) =      1.17983  eV     2   --> G_4   L_6      
     e( 25 - 26) =      6.67368  eV     2   --> G_4   L_6      
     e( 27 - 28) =      8.55550  eV     2   --> G_4   L_6      
     e( 29 - 30) =      8.87738  eV     2   --> G_5   L_4      
     e( 29 - 30) =      8.87738  eV     2   --> G_6   L_5      
     e( 31 - 32) =      9.80616  eV     2   --> G_4   L_6      
     e( 33 - 34) =     11.66608  eV     2   --> G_4   L_6      
     e( 35 - 36) =     12.03197  eV     2   --> G_5   L_4      
     e( 35 - 36) =     12.03197  eV     2   --> G_6   L_5      
     e( 37 - 38) =     14.36329  eV     2   --> G_4   L_6      

 **************************************************************************

 **************************************************************************

                    xk=(   0.00000,   0.00000,   0.24037  )

     Band symmetry, C_3v (3m)   double point group:

     e(  1 -  2) =    -14.94852  eV     2   --> G_5   L_4      
     e(  1 -  2) =    -14.94852  eV     2   --> G_6   L_5      
     e(  3 -  4) =    -14.93353  eV     2   --> G_4   L_6      
     e(  5 -  6) =    -14.88746  eV     2   --> G_5   L_4      
     e(  5 -  6) =    -14.88746  eV     2   --> G_6   L_5      
     e(  7 -  8) =    -14.88382  eV     2   --> G_4   L_6      
     e(  9 - 10) =    -12.02974  eV     2   --> G_4   L_6      
     e( 11 - 12) =    -12.00397  eV     2   --> G_4   L_6      
     e( 13 - 14) =    -12.00168  eV     2   --> G_5   L_4      
     e( 13 - 14) =    -12.00168  eV     2   --> G_6   L_5      
     e( 15 - 16) =    -11.83494  eV     2   --> G_5   L_4      
     e( 15 - 16) =    -11.83494  eV     2   --> G_6   L_5      
     e( 17 - 18) =    -11.83116  eV     2   --> G_4   L_6      
     e( 19 - 20) =    -11.82244  eV     2   --> G_4   L_6      
     e( 21 - 22) =     -3.19121  eV     2   --> G_4   L_6      
     e( 23 - 24) =      1.13027  eV     2   --> G_4   L_6      
     e( 25 - 26) =      6.69138  eV     2   --> G_4   L_6      
     e( 27 - 28) =      8.54357  eV     2   --> G_4   L_6      
     e( 29 - 30) =      8.88576  eV     2   --> G_5   L_4      
     e( 29 - 30) =      8.88576  eV     2   --> G_6   L_5      
     e( 31 - 32) =      9.78694  eV     2   --> G_4   L_6      
     e( 33 - 34) =     11.61147  eV     2   --> G_4   L_6      
     e( 35 - 36) =     11.97537  eV     2   --> G_5   L_4      
     e( 35 - 36) =     11.97537  eV     2   --> G_6   L_5      
     e( 37 - 38) =     14.37611  eV     2   --> G_4   L_6      

 **************************************************************************

 **************************************************************************

                    xk=(   0.00000,   0.00000,   0.25039  )

     Band symmetry, C_3v (3m)   double point group:

     e(  1 -  2) =    -14.94821  eV     2   --> G_5   L_4      
     e(  1 -  2) =    -14.94821  eV     2   --> G_6   L_5      
     e(  3 -  4) =    -14.93306  eV     2   --> G_4   L_6      
     e(  5 -  6) =    -14.88762  eV     2   --> G_5   L_4      
     e(  5 -  6) =    -14.88762  eV     2   --> G_6   L_5      
     e(  7 -  8) =    -14.88404  eV     2   --> G_4   L_6      
     e(  9 - 10) =    -12.02909  eV     2   --> G_4   L_6      
     e( 11 - 12) =    -12.00312  eV     2   --> G_4   L_6      
     e( 13 - 14) =    -12.00070  eV     2   --> G_5   L_4      
     e( 13 - 14) =    -12.00070  eV     2   --> G_6   L_5      
     e( 15 - 16) =    -11.83608  eV     2   --> G_5   L_4      
     e( 15 - 16) =    -11.83608  eV     2   --> G_6   L_5      
     e( 17 - 18) =    -11.83194  eV     2   --> G_4   L_6      
     e( 19 - 20) =    -11.82341  eV     2   --> G_4   L_6      
     e( 21 - 22) =     -3.16861  eV     2   --> G_4   L_6      
     e( 23 - 24) =      1.07974  eV     2   --> G_4   L_6      
     e( 25 - 26) =      6.70949  eV     2   --> G_4   L_6      
     e( 27 - 28) =      8.53070  eV     2   --> G_4   L_6      
     e( 29 - 30) =      8.89457  eV     2   --> G_5   L_4      
     e( 29 - 30) =      8.89457  eV     2   --> G_6   L_5      
     e( 31 - 32) =      9.76814  eV     2   --> G_4   L_6      
     e( 33 - 34) =     11.55674  eV     2   --> G_4   L_6      
     e( 35 - 36) =     11.91854  eV     2   --> G_5   L_4      
     e( 35 - 36) =     11.91854  eV     2   --> G_6   L_5      
     e( 37 - 38) =     14.39274  eV     2   --> G_4   L_6      

 **************************************************************************

 **************************************************************************

                    xk=(   0.00000,   0.00000,   0.26040  )

     Band symmetry, C_3v (3m)   double point group:

     e(  1 -  2) =    -14.94789  eV     2   --> G_5   L_4      
     e(  1 -  2) =    -14.94789  eV     2   --> G_6   L_5      
     e(  3 -  4) =    -14.93258  eV     2   --> G_4   L_6      
     e(  5 -  6) =    -14.88778  eV     2   --> G_5   L_4      
     e(  5 -  6) =    -14.88778  eV     2   --> G_6   L_5      
     e(  7 -  8) =    -14.88428  eV     2   --> G_4   L_6      
     e(  9 - 10) =    -12.02843  eV     2   --> G_4   L_6      
     e( 11 - 12) =    -12.00224  eV     2   --> G_4   L_6      
     e( 13 - 14) =    -11.99969  eV     2   --> G_5   L_4      
     e( 13 - 14) =    -11.99969  eV     2   --> G_6   L_5      
     e( 15 - 16) =    -11.83725  eV     2   --> G_5   L_4      
     e( 15 - 16) =    -11.83725  eV     2   --> G_6   L_5      
     e( 17 - 18) =    -11.83275  eV     2   --> G_4   L_6      
     e( 19 - 20) =    -11.82439  eV     2   --> G_4   L_6      
     e( 21 - 22) =     -3.14525  eV     2   --> G_4   L_6      
     e( 23 - 24) =      1.02836  eV     2   --> G_4   L_6      
     e( 25 - 26) =      6.72801  eV     2   --> G_4   L_6      
     e( 27 - 28) =      8.51688  eV     2   --> G_4   L_6      
     e( 29 - 30) =      8.90381  eV     2   --> G_5   L_4      
     e( 29 - 30) =      8.90381  eV     2   --> G_6   L_5      
     e( 31 - 32) =      9.74986  eV     2   --> G_4   L_6      
     e( 33 - 34) =     11.50202  eV     2   --> G_4   L_6      
     e( 35 - 36) =     11.86160  eV     2   --> G_5   L_4      
     e( 35 - 36) =     11.86160  eV     2   --> G_6   L_5      
     e( 37 - 38) =     14.41313  eV     2   --> G_4   L_6      

 **************************************************************************

 **************************************************************************

                    xk=(   0.00000,   0.00000,   0.27042  )

     Band symmetry, C_3v (3m)   double point group:

     e(  1 -  2) =    -14.94757  eV     2   --> G_5   L_4      
     e(  1 -  2) =    -14.94757  eV     2   --> G_6   L_5      
     e(  3 -  4) =    -14.93210  eV     2   --> G_4   L_6      
     e(  5 -  6) =    -14.88794  eV     2   --> G_5   L_4      
     e(  5 -  6) =    -14.88794  eV     2   --> G_6   L_5      
     e(  7 -  8) =    -14.88452  eV     2   --> G_4   L_6      
     e(  9 - 10) =    -12.02776  eV     2   --> G_4   L_6      
     e( 11 - 12) =    -12.00135  eV     2   --> G_4   L_6      
     e( 13 - 14) =    -11.99865  eV     2   --> G_5   L_4      
     e( 13 - 14) =    -11.99865  eV     2   --> G_6   L_5      
     e( 15 - 16) =    -11.83845  eV     2   --> G_5   L_4      
     e( 15 - 16) =    -11.83845  eV     2   --> G_6   L_5      
     e( 17 - 18) =    -11.83357  eV     2   --> G_4   L_6      
     e( 19 - 20) =    -11.82539  eV     2   --> G_4   L_6      
     e( 21 - 22) =     -3.12116  eV     2   --> G_4   L_6      
     e( 23 - 24) =      0.97622  eV     2   --> G_4   L_6      
     e( 25 - 26) =      6.74692  eV     2   --> G_4   L_6      
     e( 27 - 28) =      8.50210  eV     2   --> G_4   L_6      
     e( 29 - 30) =      8.91347  eV     2   --> G_5   L_4      
     e( 29 - 30) =      8.91347  eV     2   --> G_6   L_5      
     e( 31 - 32) =      9.73217  eV     2   --> G_4   L_6      
     e( 33 - 34) =     11.44742  eV     2   --> G_4   L_6      
     e( 35 - 36) =     11.80467  eV     2   --> G_5   L_4      
     e( 35 - 36) =     11.80467  eV     2   --> G_6   L_5      
     e( 37 - 38) =     14.43719  eV     2   --> G_4   L_6      

 **************************************************************************

 **************************************************************************

                    xk=(   0.00000,   0.00000,   0.28044  )

     Band symmetry, C_3v (3m)   double point group:

     e(  1 -  2) =    -14.94724  eV     2   --> G_5   L_4      
     e(  1 -  2) =    -14.94724  eV     2   --> G_6   L_5      
     e(  3 -  4) =    -14.93160  eV     2   --> G_4   L_6      
     e(  5 -  6) =    -14.88810  eV     2   --> G_5   L_4      
     e(  5 -  6) =    -14.88810  eV     2   --> G_6   L_5      
     e(  7 -  8) =    -14.88477  eV     2   --> G_4   L_6      
     e(  9 - 10) =    -12.02707  eV     2   --> G_4   L_6      
     e( 11 - 12) =    -12.00044  eV     2   --> G_4   L_6      
     e( 13 - 14) =    -11.99759  eV     2   --> G_5   L_4      
     e( 13 - 14) =    -11.99759  eV     2   --> G_6   L_5      
     e( 15 - 16) =    -11.83968  eV     2   --> G_5   L_4      
     e( 15 - 16) =    -11.83968  eV     2   --> G_6   L_5      
     e( 17 - 18) =    -11.83441  eV     2   --> G_4   L_6      
     e( 19 - 20) =    -11.82640  eV     2   --> G_4   L_6      
     e( 21 - 22) =     -3.09637  eV     2   --> G_4   L_6      
     e( 23 - 24) =      0.92343  eV     2   --> G_4   L_6      
     e( 25 - 26) =      6.76619  eV     2   --> G_4   L_6      
     e( 27 - 28) =      8.48636  eV     2   --> G_4   L_6      
     e( 29 - 30) =      8.92357  eV     2   --> G_5   L_4      
     e( 29 - 30) =      8.92357  eV     2   --> G_6   L_5      
     e( 31 - 32) =      9.71515  eV     2   --> G_4   L_6      
     e( 33 - 34) =     11.39305  eV     2   --> G_4   L_6      
     e( 35 - 36) =     11.74785  eV     2   --> G_5   L_4      
     e( 35 - 36) =     11.74785  eV     2   --> G_6   L_5      
     e( 37 - 38) =     14.46486  eV     2   --> G_4   L_6      

 **************************************************************************

 **************************************************************************

                    xk=(   0.00000,   0.00000,   0.29045  )

     Band symmetry, C_3v (3m)   double point group:

     e(  1 -  2) =    -14.94691  eV     2   --> G_5   L_4      
     e(  1 -  2) =    -14.94691  eV     2   --> G_6   L_5      
     e(  3 -  4) =    -14.93109  eV     2   --> G_4   L_6      
     e(  5 -  6) =    -14.88827  eV     2   --> G_5   L_4      
     e(  5 -  6) =    -14.88827  eV     2   --> G_6   L_5      
     e(  7 -  8) =    -14.88503  eV     2   --> G_4   L_6      
     e(  9 - 10) =    -12.02636  eV     2   --> G_4   L_6      
     e( 11 - 12) =    -11.99952  eV     2   --> G_4   L_6      
     e( 13 - 14) =    -11.99650  eV     2   --> G_5   L_4      
     e( 13 - 14) =    -11.99650  eV     2   --> G_6   L_5      
     e( 15 - 16) =    -11.84092  eV     2   --> G_5   L_4      
     e( 15 - 16) =    -11.84092  eV     2   --> G_6   L_5      
     e( 17 - 18) =    -11.83527  eV     2   --> G_4   L_6      
     e( 19 - 20) =    -11.82743  eV     2   --> G_4   L_6      
     e( 21 - 22) =     -3.07090  eV     2   --> G_4   L_6      
     e( 23 - 24) =      0.87010  eV     2   --> G_4   L_6      
     e( 25 - 26) =      6.78582  eV     2   --> G_4   L_6      
     e( 27 - 28) =      8.46965  eV     2   --> G_4   L_6      
     e( 29 - 30) =      8.93409  eV     2   --> G_5   L_4      
     e( 29 - 30) =      8.93409  eV     2   --> G_6   L_5      
     e( 31 - 32) =      9.69887  eV     2   --> G_4   L_6      
     e( 33 - 34) =     11.33901  eV     2   --> G_4   L_6      
     e( 35 - 36) =     11.69126  eV     2   --> G_5   L_4      
     e( 35 - 36) =     11.69126  eV     2   --> G_6   L_5      
     e( 37 - 38) =     14.49604  eV     2   --> G_4   L_6      

 **************************************************************************

 **************************************************************************

                    xk=(   0.00000,   0.00000,   0.30047  )

     Band symmetry, C_3v (3m)   double point group:

     e(  1 -  2) =    -14.94658  eV     2   --> G_5   L_4      
     e(  1 -  2) =    -14.94658  eV     2   --> G_6   L_5      
     e(  3 -  4) =    -14.93058  eV     2   --> G_4   L_6      
     e(  5 -  6) =    -14.88844  eV     2   --> G_5   L_4      
     e(  5 -  6) =    -14.88844  eV     2   --> G_6   L_5      
     e(  7 -  8) =    -14.88530  eV     2   --> G_4   L_6      
     e(  9 - 10) =    -12.02565  eV     2   --> G_4   L_6      
     e( 11 - 12) =    -11.99859  eV     2   --> G_4   L_6      
     e( 13 - 14) =    -11.99539  eV     2   --> G_5   L_4      
     e( 13 - 14) =    -11.99539  eV     2   --> G_6   L_5      
     e( 15 - 16) =    -11.84220  eV     2   --> G_5   L_4      
     e( 15 - 16) =    -11.84220  eV     2   --> G_6   L_5      
     e( 17 - 18) =    -11.83613  eV     2   --> G_4   L_6      
     e( 19 - 20) =    -11.82847  eV     2   --> G_4   L_6      
     e( 21 - 22) =     -3.04480  eV     2   --> G_4   L_6      
     e( 23 - 24) =      0.81632  eV     2   --> G_4   L_6      
     e( 25 - 26) =      6.80579  eV     2   --> G_4   L_6      
     e( 27 - 28) =      8.45201  eV     2   --> G_4   L_6      
     e( 29 - 30) =      8.94504  eV     2   --> G_5   L_4      
     e( 29 - 30) =      8.94504  eV     2   --> G_6   L_5      
     e( 31 - 32) =      9.68340  eV     2   --> G_4   L_6      
     e( 33 - 34) =     11.28540  eV     2   --> G_4   L_6      
     e( 35 - 36) =     11.63497  eV     2   --> G_5   L_4      
     e( 35 - 36) =     11.63497  eV     2   --> G_6   L_5      
     e( 37 - 38) =     14.53066  eV     2   --> G_4   L_6      

 **************************************************************************

 **************************************************************************

                    xk=(   0.00000,   0.00000,   0.31048  )

     Band symmetry, C_3v (3m)   double point group:

     e(  1 -  2) =    -14.94625  eV     2   --> G_5   L_4      
     e(  1 -  2) =    -14.94625  eV     2   --> G_6   L_5      
     e(  3 -  4) =    -14.93006  eV     2   --> G_4   L_6      
     e(  5 -  6) =    -14.88862  eV     2   --> G_5   L_4      
     e(  5 -  6) =    -14.88862  eV     2   --> G_6   L_5      
     e(  7 -  8) =    -14.88557  eV     2   --> G_4   L_6      
     e(  9 - 10) =    -12.02493  eV     2   --> G_4   L_6      
     e( 11 - 12) =    -11.99765  eV     2   --> G_4   L_6      
     e( 13 - 14) =    -11.99427  eV     2   --> G_5   L_4      
     e( 13 - 14) =    -11.99427  eV     2   --> G_6   L_5      
     e( 15 - 16) =    -11.84348  eV     2   --> G_5   L_4      
     e( 15 - 16) =    -11.84348  eV     2   --> G_6   L_5      
     e( 17 - 18) =    -11.83700  eV     2   --> G_4   L_6      
     e( 19 - 20) =    -11.82952  eV     2   --> G_4   L_6      
     e( 21 - 22) =     -3.01809  eV     2   --> G_4   L_6      
     e( 23 - 24) =      0.76221  eV     2   --> G_4   L_6      
     e( 25 - 26) =      6.82609  eV     2   --> G_4   L_6      
     e( 27 - 28) =      8.43343  eV     2   --> G_4   L_6      
     e( 29 - 30) =      8.95641  eV     2   --> G_5   L_4      
     e( 29 - 30) =      8.95641  eV     2   --> G_6   L_5      
     e( 31 - 32) =      9.66878  eV     2   --> G_4   L_6      
     e( 33 - 34) =     11.23231  eV     2   --> G_4   L_6      
     e( 35 - 36) =     11.57909  eV     2   --> G_5   L_4      
     e( 35 - 36) =     11.57909  eV     2   --> G_6   L_5      
     e( 37 - 38) =     14.56860  eV     2   --> G_4   L_6      

 **************************************************************************

 **************************************************************************

                    xk=(   0.00000,   0.00000,   0.32050  )

     Band symmetry, C_3v (3m)   double point group:

     e(  1 -  2) =    -14.94591  eV     2   --> G_5   L_4      
     e(  1 -  2) =    -14.94591  eV     2   --> G_6   L_5      
     e(  3 -  4) =    -14.92953  eV     2   --> G_4   L_6      
     e(  5 -  6) =    -14.88879  eV     2   --> G_5   L_4      
     e(  5 -  6) =    -14.88879  eV     2   --> G_6   L_5      
     e(  7 -  8) =    -14.88584  eV     2   --> G_4   L_6      
     e(  9 - 10) =    -12.02420  eV     2   --> G_4   L_6      
     e( 11 - 12) =    -11.99671  eV     2   --> G_4   L_6      
     e( 13 - 14) =    -11.99312  eV     2   --> G_5   L_4      
     e( 13 - 14) =    -11.99312  eV     2   --> G_6   L_5      
     e( 15 - 16) =    -11.84479  eV     2   --> G_5   L_4      
     e( 15 - 16) =    -11.84479  eV     2   --> G_6   L_5      
     e( 17 - 18) =    -11.83788  eV     2   --> G_4   L_6      
     e( 19 - 20) =    -11.83057  eV     2   --> G_4   L_6      
     e( 21 - 22) =     -2.99082  eV     2   --> G_4   L_6      
     e( 23 - 24) =      0.70787  eV     2   --> G_4   L_6      
     e( 25 - 26) =      6.84670  eV     2   --> G_4   L_6      
     e( 27 - 28) =      8.41396  eV     2   --> G_4   L_6      
     e( 29 - 30) =      8.96820  eV     2   --> G_5   L_4      
     e( 29 - 30) =      8.96820  eV     2   --> G_6   L_5      
     e( 31 - 32) =      9.65506  eV     2   --> G_4   L_6      
     e( 33 - 34) =     11.17982  eV     2   --> G_4   L_6      
     e( 35 - 36) =     11.52370  eV     2   --> G_5   L_4      
     e( 35 - 36) =     11.52370  eV     2   --> G_6   L_5      
     e( 37 - 38) =     14.60977  eV     2   --> G_4   L_6      

 **************************************************************************

 **************************************************************************

                    xk=(   0.00000,   0.00000,   0.33051  )

     Band symmetry, C_3v (3m)   double point group:

     e(  1 -  2) =    -14.94557  eV     2   --> G_5   L_4      
     e(  1 -  2) =    -14.94557  eV     2   --> G_6   L_5      
     e(  3 -  4) =    -14.92900  eV     2   --> G_4   L_6      
     e(  5 -  6) =    -14.88897  eV     2   --> G_5   L_4      
     e(  5 -  6) =    -14.88897  eV     2   --> G_6   L_5      
     e(  7 -  8) =    -14.88613  eV     2   --> G_4   L_6      
     e(  9 - 10) =    -12.02347  eV     2   --> G_4   L_6      
     e( 11 - 12) =    -11.99576  eV     2   --> G_4   L_6      
     e( 13 - 14) =    -11.99197  eV     2   --> G_5   L_4      
     e( 13 - 14) =    -11.99197  eV     2   --> G_6   L_5      
     e( 15 - 16) =    -11.84611  eV     2   --> G_5   L_4      
     e( 15 - 16) =    -11.84611  eV     2   --> G_6   L_5      
     e( 17 - 18) =    -11.83877  eV     2   --> G_4   L_6      
     e( 19 - 20) =    -11.83162  eV     2   --> G_4   L_6      
     e( 21 - 22) =     -2.96302  eV     2   --> G_4   L_6      
     e( 23 - 24) =      0.65340  eV     2   --> G_4   L_6      
     e( 25 - 26) =      6.86761  eV     2   --> G_4   L_6      
     e( 27 - 28) =      8.39361  eV     2   --> G_4   L_6      
     e( 29 - 30) =      8.98038  eV     2   --> G_5   L_4      
     e( 29 - 30) =      8.98038  eV     2   --> G_6   L_5      
     e( 31 - 32) =      9.64228  eV     2   --> G_4   L_6      
     e( 33 - 34) =     11.12802  eV     2   --> G_4   L_6      
     e( 35 - 36) =     11.46889  eV     2   --> G_5   L_4      
     e( 35 - 36) =     11.46889  eV     2   --> G_6   L_5      
     e( 37 - 38) =     14.65405  eV     2   --> G_4   L_6      

 **************************************************************************

 **************************************************************************

                    xk=(   0.00000,   0.00000,   0.34053  )

     Band symmetry, C_3v (3m)   double point group:

     e(  1 -  2) =    -14.94524  eV     2   --> G_5   L_4      
     e(  1 -  2) =    -14.94524  eV     2   --> G_6   L_5      
     e(  3 -  4) =    -14.92847  eV     2   --> G_4   L_6      
     e(  5 -  6) =    -14.88914  eV     2   --> G_5   L_4      
     e(  5 -  6) =    -14.88914  eV     2   --> G_6   L_5      
     e(  7 -  8) =    -14.88642  eV     2   --> G_4   L_6      
     e(  9 - 10) =    -12.02273  eV     2   --> G_4   L_6      
     e( 11 - 12) =    -11.99481  eV     2   --> G_4   L_6      
     e( 13 - 14) =    -11.99080  eV     2   --> G_5   L_4      
     e( 13 - 14) =    -11.99080  eV     2   --> G_6   L_5      
     e( 15 - 16) =    -11.84744  eV     2   --> G_5   L_4      
     e( 15 - 16) =    -11.84744  eV     2   --> G_6   L_5      
     e( 17 - 18) =    -11.83965  eV     2   --> G_4   L_6      
     e( 19 - 20) =    -11.83268  eV     2   --> G_4   L_6      
     e( 21 - 22) =     -2.93475  eV     2   --> G_4   L_6      
     e( 23 - 24) =      0.59892  eV     2   --> G_4   L_6      
     e( 25 - 26) =      6.88881  eV     2   --> G_4   L_6      
     e( 27 - 28) =      8.37243  eV     2   --> G_4   L_6      
     e( 29 - 30) =      8.99296  eV     2   --> G_5   L_4      
     e( 29 - 30) =      8.99296  eV     2   --> G_6   L_5      
     e( 31 - 32) =      9.63048  eV     2   --> G_4   L_6      
     e( 33 - 34) =     11.07699  eV     2   --> G_4   L_6      
     e( 35 - 36) =     11.41474  eV     2   --> G_5   L_4      
     e( 35 - 36) =     11.41474  eV     2   --> G_6   L_5      
     e( 37 - 38) =     14.70134  eV     2   --> G_4   L_6      

 **************************************************************************

 **************************************************************************

                    xk=(   0.00000,   0.00000,   0.35054  )

     Band symmetry, C_3v (3m)   double point group:

     e(  1 -  2) =    -14.94490  eV     2   --> G_5   L_4      
     e(  1 -  2) =    -14.94490  eV     2   --> G_6   L_5      
     e(  3 -  4) =    -14.92793  eV     2   --> G_4   L_6      
     e(  5 -  6) =    -14.88932  eV     2   --> G_5   L_4      
     e(  5 -  6) =    -14.88932  eV     2   --> G_6   L_5      
     e(  7 -  8) =    -14.88671  eV     2   --> G_4   L_6      
     e(  9 - 10) =    -12.02200  eV     2   --> G_4   L_6      
     e( 11 - 12) =    -11.99386  eV     2   --> G_4   L_6      
     e( 13 - 14) =    -11.98963  eV     2   --> G_5   L_4      
     e( 13 - 14) =    -11.98963  eV     2   --> G_6   L_5      
     e( 15 - 16) =    -11.84877  eV     2   --> G_5   L_4      
     e( 15 - 16) =    -11.84877  eV     2   --> G_6   L_5      
     e( 17 - 18) =    -11.84054  eV     2   --> G_4   L_6      
     e( 19 - 20) =    -11.83374  eV     2   --> G_4   L_6      
     e( 21 - 22) =     -2.90605  eV     2   --> G_4   L_6      
     e( 23 - 24) =      0.54454  eV     2   --> G_4   L_6      
     e( 25 - 26) =      6.91030  eV     2   --> G_4   L_6      
     e( 27 - 28) =      8.35046  eV     2   --> G_4   L_6      
     e( 29 - 30) =      9.00591  eV     2   --> G_5   L_4      
     e( 29 - 30) =      9.00591  eV     2   --> G_6   L_5      
     e( 31 - 32) =      9.61967  eV     2   --> G_4   L_6      
     e( 33 - 34) =     11.02679  eV     2   --> G_4   L_6      
     e( 35 - 36) =     11.36134  eV     2   --> G_5   L_4      
     e( 35 - 36) =     11.36134  eV     2   --> G_6   L_5      
     e( 37 - 38) =     14.75152  eV     2   --> G_4   L_6      

 **************************************************************************

 **************************************************************************

                    xk=(   0.00000,   0.00000,   0.36056  )

     Band symmetry, C_3v (3m)   double point group:

     e(  1 -  2) =    -14.94457  eV     2   --> G_5   L_4      
     e(  1 -  2) =    -14.94457  eV     2   --> G_6   L_5      
     e(  3 -  4) =    -14.92739  eV     2   --> G_4   L_6      
     e(  5 -  6) =    -14.88950  eV     2   --> G_5   L_4      
     e(  5 -  6) =    -14.88950  eV     2   --> G_6   L_5      
     e(  7 -  8) =    -14.88701  eV     2   --> G_4   L_6      
     e(  9 - 10) =    -12.02126  eV     2   --> G_4   L_6      
     e( 11 - 12) =    -11.99292  eV     2   --> G_4   L_6      
     e( 13 - 14) =    -11.98844  eV     2   --> G_5   L_4      
     e( 13 - 14) =    -11.98844  eV     2   --> G_6   L_5      
     e( 15 - 16) =    -11.85011  eV     2   --> G_5   L_4      
     e( 15 - 16) =    -11.85011  eV     2   --> G_6   L_5      
     e( 17 - 18) =    -11.84142  eV     2   --> G_4   L_6      
     e( 19 - 20) =    -11.83479  eV     2   --> G_4   L_6      
     e( 21 - 22) =     -2.87698  eV     2   --> G_4   L_6      
     e( 23 - 24) =      0.49037  eV     2   --> G_4   L_6      
     e( 25 - 26) =      6.93205  eV     2   --> G_4   L_6      
     e( 27 - 28) =      8.32774  eV     2   --> G_4   L_6      
     e( 29 - 30) =      9.01922  eV     2   --> G_5   L_4      
     e( 29 - 30) =      9.01922  eV     2   --> G_6   L_5      
     e( 31 - 32) =      9.60986  eV     2   --> G_4   L_6      
     e( 33 - 34) =     10.97752  eV     2   --> G_4   L_6      
     e( 35 - 36) =     11.30875  eV     2   --> G_5   L_4      
     e( 35 - 36) =     11.30875  eV     2   --> G_6   L_5      
     e( 37 - 38) =     14.80444  eV     2   --> G_4   L_6      

 **************************************************************************

 **************************************************************************

                    xk=(   0.00000,   0.00000,   0.37058  )

     Band symmetry, C_3v (3m)   double point group:

     e(  1 -  2) =    -14.94424  eV     2   --> G_5   L_4      
     e(  1 -  2) =    -14.94424  eV     2   --> G_6   L_5      
     e(  3 -  4) =    -14.92686  eV     2   --> G_4   L_6      
     e(  5 -  6) =    -14.88968  eV     2   --> G_5   L_4      
     e(  5 -  6) =    -14.88968  eV     2   --> G_6   L_5      
     e(  7 -  8) =    -14.88731  eV     2   --> G_4   L_6      
     e(  9 - 10) =    -12.02053  eV     2   --> G_4   L_6      
     e( 11 - 12) =    -11.99198  eV     2   --> G_4   L_6      
     e( 13 - 14) =    -11.98726  eV     2   --> G_5   L_4      
     e( 13 - 14) =    -11.98726  eV     2   --> G_6   L_5      
     e( 15 - 16) =    -11.85145  eV     2   --> G_5   L_4      
     e( 15 - 16) =    -11.85145  eV     2   --> G_6   L_5      
     e( 17 - 18) =    -11.84229  eV     2   --> G_4   L_6      
     e( 19 - 20) =    -11.83583  eV     2   --> G_4   L_6      
     e( 21 - 22) =     -2.84761  eV     2   --> G_4   L_6      
     e( 23 - 24) =      0.43653  eV     2   --> G_4   L_6      
     e( 25 - 26) =      6.95405  eV     2   --> G_4   L_6      
     e( 27 - 28) =      8.30434  eV     2   --> G_4   L_6      
     e( 29 - 30) =      9.03286  eV     2   --> G_5   L_4      
     e( 29 - 30) =      9.03286  eV     2   --> G_6   L_5      
     e( 31 - 32) =      9.60108  eV     2   --> G_4   L_6      
     e( 33 - 34) =     10.92922  eV     2   --> G_4   L_6      
     e( 35 - 36) =     11.25707  eV     2   --> G_5   L_4      
     e( 35 - 36) =     11.25707  eV     2   --> G_6   L_5      
     e( 37 - 38) =     14.85998  eV     2   --> G_4   L_6      

 **************************************************************************

 **************************************************************************

                    xk=(   0.00000,   0.00000,   0.38059  )

     Band symmetry, C_3v (3m)   double point group:

     e(  1 -  2) =    -14.94391  eV     2   --> G_5   L_4      
     e(  1 -  2) =    -14.94391  eV     2   --> G_6   L_5      
     e(  3 -  4) =    -14.92632  eV     2   --> G_4   L_6      
     e(  5 -  6) =    -14.88985  eV     2   --> G_5   L_4      
     e(  5 -  6) =    -14.88985  eV     2   --> G_6   L_5      
     e(  7 -  8) =    -14.88762  eV     2   --> G_4   L_6      
     e(  9 - 10) =    -12.01980  eV     2   --> G_4   L_6      
     e( 11 - 12) =    -11.99106  eV     2   --> G_4   L_6      
     e( 13 - 14) =    -11.98607  eV     2   --> G_5   L_4      
     e( 13 - 14) =    -11.98607  eV     2   --> G_6   L_5      
     e( 15 - 16) =    -11.85278  eV     2   --> G_5   L_4      
     e( 15 - 16) =    -11.85278  eV     2   --> G_6   L_5      
     e( 17 - 18) =    -11.84315  eV     2   --> G_4   L_6      
     e( 19 - 20) =    -11.83687  eV     2   --> G_4   L_6      
     e( 21 - 22) =     -2.81800  eV     2   --> G_4   L_6      
     e( 23 - 24) =      0.38312  eV     2   --> G_4   L_6      
     e( 25 - 26) =      6.97629  eV     2   --> G_4   L_6      
     e( 27 - 28) =      8.28030  eV     2   --> G_4   L_6      
     e( 29 - 30) =      9.04681  eV     2   --> G_5   L_4      
     e( 29 - 30) =      9.04681  eV     2   --> G_6   L_5      
     e( 31 - 32) =      9.59332  eV     2   --> G_4   L_6      
     e( 33 - 34) =     10.88198  eV     2   --> G_4   L_6      
     e( 35 - 36) =     11.20636  eV     2   --> G_5   L_4      
     e( 35 - 36) =     11.20636  eV     2   --> G_6   L_5      
     e( 37 - 38) =     14.91799  eV     2   --> G_4   L_6      

 **************************************************************************

 **************************************************************************

                    xk=(   0.00000,   0.00000,   0.39061  )

     Band symmetry, C_3v (3m)   double point group:

     e(  1 -  2) =    -14.94359  eV     2   --> G_5   L_4      
     e(  1 -  2) =    -14.94359  eV     2   --> G_6   L_5      
     e(  3 -  4) =    -14.92579  eV     2   --> G_4   L_6      
     e(  5 -  6) =    -14.89003  eV     2   --> G_5   L_4      
     e(  5 -  6) =    -14.89003  eV     2   --> G_6   L_5      
     e(  7 -  8) =    -14.88792  eV     2   --> G_4   L_6      
     e(  9 - 10) =    -12.01908  eV     2   --> G_4   L_6      
     e( 11 - 12) =    -11.99014  eV     2   --> G_4   L_6      
[...]
     e( 13 - 14) =    -12.00813  eV     2   --> G_3            
     e( 13 - 14) =    -12.00813  eV     2   --> G_4            
     e( 15 - 16) =    -11.82767  eV     2   --> G_3            
     e( 15 - 16) =    -11.82767  eV     2   --> G_4            
     e( 17 - 18) =    -11.81681  eV     2   --> G_3            
     e( 17 - 18) =    -11.81681  eV     2   --> G_4            
     e( 19 - 20) =    -11.81091  eV     2   --> G_3            
     e( 19 - 20) =    -11.81091  eV     2   --> G_4            
     e( 21 - 22) =     -3.43912  eV     2   --> G_3            
     e( 21 - 22) =     -3.43912  eV     2   --> G_4            
     e( 23 - 24) =      1.75744  eV     2   --> G_3            
     e( 23 - 24) =      1.75744  eV     2   --> G_4            
     e( 25 - 26) =      6.45950  eV     2   --> G_3            
     e( 25 - 26) =      6.45950  eV     2   --> G_4            
     e( 27 - 28) =      8.62169  eV     2   --> G_3            
     e( 27 - 28) =      8.62169  eV     2   --> G_4            
     e( 29 - 30) =      8.79750  eV     2   --> G_3            
     e( 29 - 30) =      8.79750  eV     2   --> G_4            
     e( 31 - 32) =     10.09229  eV     2   --> G_3            
     e( 31 - 32) =     10.09229  eV     2   --> G_4            
     e( 33 - 34) =     12.36742  eV     2   --> G_3            
     e( 33 - 34) =     12.36742  eV     2   --> G_4            
     e( 35 - 36) =     12.78999  eV     2   --> G_3            
     e( 35 - 36) =     12.78999  eV     2   --> G_4            
     e( 37 - 38) =     14.79228  eV     2   --> G_3            
     e( 37 - 38) =     14.79228  eV     2   --> G_4            

 **************************************************************************

 **************************************************************************

                    xk=(   0.04337,  -0.02504,   0.03339  )

     Band symmetry, C_s (m)     double point group:

     e(  1 -  2) =    -14.95226  eV     2   --> G_3            
     e(  1 -  2) =    -14.95226  eV     2   --> G_4            
     e(  3 -  4) =    -14.93920  eV     2   --> G_3            
     e(  3 -  4) =    -14.93920  eV     2   --> G_4            
     e(  5 -  6) =    -14.88563  eV     2   --> G_3            
     e(  5 -  6) =    -14.88563  eV     2   --> G_4            
     e(  7 -  8) =    -14.88121  eV     2   --> G_3            
     e(  7 -  8) =    -14.88121  eV     2   --> G_4            
     e(  9 - 10) =    -12.03722  eV     2   --> G_3            
     e(  9 - 10) =    -12.03722  eV     2   --> G_4            
     e( 11 - 12) =    -12.01813  eV     2   --> G_3            
     e( 11 - 12) =    -12.01813  eV     2   --> G_4            
     e( 13 - 14) =    -12.00936  eV     2   --> G_3            
     e( 13 - 14) =    -12.00936  eV     2   --> G_4            
     e( 15 - 16) =    -11.82632  eV     2   --> G_3            
     e( 15 - 16) =    -11.82632  eV     2   --> G_4            
     e( 17 - 18) =    -11.81719  eV     2   --> G_3            
     e( 17 - 18) =    -11.81719  eV     2   --> G_4            
     e( 19 - 20) =    -11.81060  eV     2   --> G_3            
     e( 19 - 20) =    -11.81060  eV     2   --> G_4            
     e( 21 - 22) =     -3.44772  eV     2   --> G_3            
     e( 21 - 22) =     -3.44772  eV     2   --> G_4            
     e( 23 - 24) =      1.77763  eV     2   --> G_3            
     e( 23 - 24) =      1.77763  eV     2   --> G_4            
     e( 25 - 26) =      6.45572  eV     2   --> G_3            
     e( 25 - 26) =      6.45572  eV     2   --> G_4            
     e( 27 - 28) =      8.63536  eV     2   --> G_3            
     e( 27 - 28) =      8.63536  eV     2   --> G_4            
     e( 29 - 30) =      8.78928  eV     2   --> G_3            
     e( 29 - 30) =      8.78928  eV     2   --> G_4            
     e( 31 - 32) =     10.10301  eV     2   --> G_3            
     e( 31 - 32) =     10.10301  eV     2   --> G_4            
     e( 33 - 34) =     12.41211  eV     2   --> G_3            
     e( 33 - 34) =     12.41211  eV     2   --> G_4            
     e( 35 - 36) =     12.80252  eV     2   --> G_3            
     e( 35 - 36) =     12.80252  eV     2   --> G_4            
     e( 37 - 38) =     14.84037  eV     2   --> G_3            
     e( 37 - 38) =     14.84037  eV     2   --> G_4            

 **************************************************************************

 **************************************************************************

                    xk=(   0.03469,  -0.02003,   0.02671  )

     Band symmetry, C_s (m)     double point group:

     e(  1 -  2) =    -14.95238  eV     2   --> G_3            
     e(  1 -  2) =    -14.95238  eV     2   --> G_4            
     e(  3 -  4) =    -14.93932  eV     2   --> G_3            
     e(  3 -  4) =    -14.93932  eV     2   --> G_4            
     e(  5 -  6) =    -14.88558  eV     2   --> G_3            
     e(  5 -  6) =    -14.88558  eV     2   --> G_4            
     e(  7 -  8) =    -14.88118  eV     2   --> G_3            
     e(  7 -  8) =    -14.88118  eV     2   --> G_4            
     e(  9 - 10) =    -12.03748  eV     2   --> G_3            
     e(  9 - 10) =    -12.03748  eV     2   --> G_4            
     e( 11 - 12) =    -12.01759  eV     2   --> G_3            
     e( 11 - 12) =    -12.01759  eV     2   --> G_4            
     e( 13 - 14) =    -12.01053  eV     2   --> G_3            
     e( 13 - 14) =    -12.01053  eV     2   --> G_4            
     e( 15 - 16) =    -11.82505  eV     2   --> G_3            
     e( 15 - 16) =    -11.82505  eV     2   --> G_4            
     e( 17 - 18) =    -11.81771  eV     2   --> G_3            
     e( 17 - 18) =    -11.81771  eV     2   --> G_4            
     e( 19 - 20) =    -11.81030  eV     2   --> G_3            
     e( 19 - 20) =    -11.81030  eV     2   --> G_4            
     e( 21 - 22) =     -3.45476  eV     2   --> G_3            
     e( 21 - 22) =     -3.45476  eV     2   --> G_4            
     e( 23 - 24) =      1.79440  eV     2   --> G_3            
     e( 23 - 24) =      1.79440  eV     2   --> G_4            
     e( 25 - 26) =      6.45209  eV     2   --> G_3            
     e( 25 - 26) =      6.45209  eV     2   --> G_4            
     e( 27 - 28) =      8.64369  eV     2   --> G_3            
     e( 27 - 28) =      8.64369  eV     2   --> G_4            
     e( 29 - 30) =      8.78576  eV     2   --> G_3            
     e( 29 - 30) =      8.78576  eV     2   --> G_4            
     e( 31 - 32) =     10.11128  eV     2   --> G_3            
     e( 31 - 32) =     10.11128  eV     2   --> G_4            
     e( 33 - 34) =     12.44510  eV     2   --> G_3            
     e( 33 - 34) =     12.44510  eV     2   --> G_4            
     e( 35 - 36) =     12.81990  eV     2   --> G_3            
     e( 35 - 36) =     12.81990  eV     2   --> G_4            
     e( 37 - 38) =     14.87580  eV     2   --> G_3            
     e( 37 - 38) =     14.87580  eV     2   --> G_4            

 **************************************************************************

 **************************************************************************

                    xk=(   0.02602,  -0.01502,   0.02003  )

     Band symmetry, C_s (m)     double point group:

     e(  1 -  2) =    -14.95247  eV     2   --> G_3            
     e(  1 -  2) =    -14.95247  eV     2   --> G_4            
     e(  3 -  4) =    -14.93940  eV     2   --> G_3            
     e(  3 -  4) =    -14.93940  eV     2   --> G_4            
     e(  5 -  6) =    -14.88555  eV     2   --> G_3            
     e(  5 -  6) =    -14.88555  eV     2   --> G_4            
     e(  7 -  8) =    -14.88115  eV     2   --> G_3            
     e(  7 -  8) =    -14.88115  eV     2   --> G_4            
     e(  9 - 10) =    -12.03769  eV     2   --> G_3            
     e(  9 - 10) =    -12.03769  eV     2   --> G_4            
     e( 11 - 12) =    -12.01699  eV     2   --> G_3            
     e( 11 - 12) =    -12.01699  eV     2   --> G_4            
     e( 13 - 14) =    -12.01162  eV     2   --> G_3            
     e( 13 - 14) =    -12.01162  eV     2   --> G_4            
     e( 15 - 16) =    -11.82387  eV     2   --> G_3            
     e( 15 - 16) =    -11.82387  eV     2   --> G_4            
     e( 17 - 18) =    -11.81833  eV     2   --> G_3            
     e( 17 - 18) =    -11.81833  eV     2   --> G_4            
     e( 19 - 20) =    -11.81003  eV     2   --> G_3            
     e( 19 - 20) =    -11.81003  eV     2   --> G_4            
     e( 21 - 22) =     -3.46025  eV     2   --> G_3            
     e( 21 - 22) =     -3.46025  eV     2   --> G_4            
     e( 23 - 24) =      1.80762  eV     2   --> G_3            
     e( 23 - 24) =      1.80762  eV     2   --> G_4            
     e( 25 - 26) =      6.44892  eV     2   --> G_3            
     e( 25 - 26) =      6.44892  eV     2   --> G_4            
     e( 27 - 28) =      8.64785  eV     2   --> G_3            
     e( 27 - 28) =      8.64785  eV     2   --> G_4            
     e( 29 - 30) =      8.78558  eV     2   --> G_3            
     e( 29 - 30) =      8.78558  eV     2   --> G_4            
     e( 31 - 32) =     10.11738  eV     2   --> G_3            
     e( 31 - 32) =     10.11738  eV     2   --> G_4            
     e( 33 - 34) =     12.46743  eV     2   --> G_3            
     e( 33 - 34) =     12.46743  eV     2   --> G_4            
     e( 35 - 36) =     12.83912  eV     2   --> G_3            
     e( 35 - 36) =     12.83912  eV     2   --> G_4            
     e( 37 - 38) =     14.90247  eV     2   --> G_3            
     e( 37 - 38) =     14.90247  eV     2   --> G_4            

 **************************************************************************

 **************************************************************************

                    xk=(   0.01735,  -0.01002,   0.01335  )

     Band symmetry, C_s (m)     double point group:

     e(  1 -  2) =    -14.95254  eV     2   --> G_3            
     e(  1 -  2) =    -14.95254  eV     2   --> G_4            
     e(  3 -  4) =    -14.93947  eV     2   --> G_3            
     e(  3 -  4) =    -14.93947  eV     2   --> G_4            
     e(  5 -  6) =    -14.88553  eV     2   --> G_3            
     e(  5 -  6) =    -14.88553  eV     2   --> G_4            
     e(  7 -  8) =    -14.88113  eV     2   --> G_3            
     e(  7 -  8) =    -14.88113  eV     2   --> G_4            
     e(  9 - 10) =    -12.03785  eV     2   --> G_3            
     e(  9 - 10) =    -12.03785  eV     2   --> G_4            
     e( 11 - 12) =    -12.01632  eV     2   --> G_3            
     e( 11 - 12) =    -12.01632  eV     2   --> G_4            
     e( 13 - 14) =    -12.01264  eV     2   --> G_3            
     e( 13 - 14) =    -12.01264  eV     2   --> G_4            
     e( 15 - 16) =    -11.82277  eV     2   --> G_3            
     e( 15 - 16) =    -11.82277  eV     2   --> G_4            
     e( 17 - 18) =    -11.81904  eV     2   --> G_3            
     e( 17 - 18) =    -11.81904  eV     2   --> G_4            
     e( 19 - 20) =    -11.80983  eV     2   --> G_3            
     e( 19 - 20) =    -11.80983  eV     2   --> G_4            
     e( 21 - 22) =     -3.46416  eV     2   --> G_3            
     e( 21 - 22) =     -3.46416  eV     2   --> G_4            
     e( 23 - 24) =      1.81714  eV     2   --> G_3            
     e( 23 - 24) =      1.81714  eV     2   --> G_4            
     e( 25 - 26) =      6.44646  eV     2   --> G_3            
     e( 25 - 26) =      6.44646  eV     2   --> G_4            
     e( 27 - 28) =      8.64943  eV     2   --> G_3            
     e( 27 - 28) =      8.64943  eV     2   --> G_4            
     e( 29 - 30) =      8.78700  eV     2   --> G_3            
     e( 29 - 30) =      8.78700  eV     2   --> G_4            
     e( 31 - 32) =     10.12154  eV     2   --> G_3            
     e( 31 - 32) =     10.12154  eV     2   --> G_4            
     e( 33 - 34) =     12.48119  eV     2   --> G_3            
     e( 33 - 34) =     12.48119  eV     2   --> G_4            
     e( 35 - 36) =     12.85635  eV     2   --> G_3            
     e( 35 - 36) =     12.85635  eV     2   --> G_4            
     e( 37 - 38) =     14.92430  eV     2   --> G_3            
     e( 37 - 38) =     14.92430  eV     2   --> G_4            

 **************************************************************************

 **************************************************************************

                    xk=(   0.00867,  -0.00501,   0.00668  )

     Band symmetry, C_s (m)     double point group:

     e(  1 -  2) =    -14.95259  eV     2   --> G_3            
     e(  1 -  2) =    -14.95259  eV     2   --> G_4            
     e(  3 -  4) =    -14.93950  eV     2   --> G_3            
     e(  3 -  4) =    -14.93950  eV     2   --> G_4            
     e(  5 -  6) =    -14.88552  eV     2   --> G_3            
     e(  5 -  6) =    -14.88552  eV     2   --> G_4            
     e(  7 -  8) =    -14.88111  eV     2   --> G_3            
     e(  7 -  8) =    -14.88111  eV     2   --> G_4            
     e(  9 - 10) =    -12.03794  eV     2   --> G_3            
     e(  9 - 10) =    -12.03794  eV     2   --> G_4            
     e( 11 - 12) =    -12.01562  eV     2   --> G_3            
     e( 11 - 12) =    -12.01562  eV     2   --> G_4            
     e( 13 - 14) =    -12.01354  eV     2   --> G_3            
     e( 13 - 14) =    -12.01354  eV     2   --> G_4            
     e( 15 - 16) =    -11.82177  eV     2   --> G_3            
     e( 15 - 16) =    -11.82177  eV     2   --> G_4            
     e( 17 - 18) =    -11.81981  eV     2   --> G_3            
     e( 17 - 18) =    -11.81981  eV     2   --> G_4            
     e( 19 - 20) =    -11.80971  eV     2   --> G_3            
     e( 19 - 20) =    -11.80971  eV     2   --> G_4            
     e( 21 - 22) =     -3.46652  eV     2   --> G_3            
     e( 21 - 22) =     -3.46652  eV     2   --> G_4            
     e( 23 - 24) =      1.82290  eV     2   --> G_3            
     e( 23 - 24) =      1.82290  eV     2   --> G_4            
     e( 25 - 26) =      6.44490  eV     2   --> G_3            
     e( 25 - 26) =      6.44490  eV     2   --> G_4            
     e( 27 - 28) =      8.64981  eV     2   --> G_3            
     e( 27 - 28) =      8.64981  eV     2   --> G_4            
     e( 29 - 30) =      8.78848  eV     2   --> G_3            
     e( 29 - 30) =      8.78848  eV     2   --> G_4            
     e( 31 - 32) =     10.12396  eV     2   --> G_3            
     e( 31 - 32) =     10.12396  eV     2   --> G_4            
     e( 33 - 34) =     12.48851  eV     2   --> G_3            
     e( 33 - 34) =     12.48851  eV     2   --> G_4            
     e( 35 - 36) =     12.86819  eV     2   --> G_3            
     e( 35 - 36) =     12.86819  eV     2   --> G_4            
     e( 37 - 38) =     14.93967  eV     2   --> G_3            
     e( 37 - 38) =     14.93967  eV     2   --> G_4            

 **************************************************************************

 **************************************************************************

                    xk=(   0.00000,   0.00000,   0.00000  )

     double point group D_3d (-3m) 
     there are 12 classes and  6 irreducible representations
     the character table:

       E     -E    2C3   -2C3  3C2'  -3C2' i     -i    2S6   -2S6  3s_v  -3s_v
                                                                              
G_4+   2.00 -2.00  1.00 -1.00  0.00  0.00  2.00 -2.00  1.00 -1.00  0.00  0.00
G_5+   1.00 -1.00 -1.00  1.00  0.00  0.00  1.00 -1.00 -1.00  1.00  0.00  0.00
G_6+   1.00 -1.00 -1.00  1.00  0.00  0.00  1.00 -1.00 -1.00  1.00  0.00  0.00
G_4-   2.00 -2.00  1.00 -1.00  0.00  0.00 -2.00  2.00 -1.00  1.00  0.00  0.00
G_5-   1.00 -1.00 -1.00  1.00  0.00  0.00 -1.00  1.00  1.00 -1.00  0.00  0.00
G_6-   1.00 -1.00 -1.00  1.00  0.00  0.00 -1.00  1.00  1.00 -1.00  0.00  0.00

     imaginary part

       E     -E    2C3   -2C3  3C2'  -3C2' i     -i    2S6   -2S6  3s_v  -3s_v
                                                                              
G_4+   0.00  0.00  0.00  0.00  0.00  0.00  0.00  0.00  0.00  0.00  0.00  0.00
G_5+   0.00  0.00  0.00  0.00  1.00 -1.00  0.00  0.00  0.00  0.00  1.00 -1.00
G_6+   0.00  0.00  0.00  0.00 -1.00  1.00  0.00  0.00  0.00  0.00 -1.00  1.00
G_4-   0.00  0.00  0.00  0.00  0.00  0.00  0.00  0.00  0.00  0.00  0.00  0.00
G_5-   0.00  0.00  0.00  0.00  1.00 -1.00  0.00  0.00  0.00  0.00 -1.00  1.00
G_6-   0.00  0.00  0.00  0.00 -1.00  1.00  0.00  0.00  0.00  0.00  1.00 -1.00

     the symmetry operations in each class and the name of the first element:

     E             1
                                                                 
     -E           -1
                                                                 
     2C3           3    4
                                                                 
     -2C3         -3   -4
                                                                 
     3C2'          2   -5   -6
                                                                 
     3C2'          5    6   -2
                                                                 
     i             7
                                                                 
     -i           -7
                                                                 
     2S6           9   10
                                                                 
     -2S6         -9  -10
                                                                 
     3s_v          8  -11  -12
                                                                 
     3s_v         11   12   -8
                                                                 

     Band symmetry, D_3d (-3m)  double point group:

     e(  1 -  2) =    -14.95260  eV     2   --> G_5+  L_4+     
     e(  1 -  2) =    -14.95260  eV     2   --> G_6+  L_5+     
     e(  3 -  4) =    -14.93952  eV     2   --> G_4+  L_6+     
     e(  5 -  6) =    -14.88551  eV     2   --> G_5-  L_4-     
     e(  5 -  6) =    -14.88551  eV     2   --> G_6-  L_5-     
     e(  7 -  8) =    -14.88111  eV     2   --> G_4-  L_6-     
     e(  9 - 10) =    -12.03797  eV     2   --> G_4+  L_6+     
     e( 11 - 12) =    -12.01517  eV     2   --> G_4-  L_6-     
     e( 13 - 14) =    -12.01406  eV     2   --> G_5+  L_4+     
     e( 13 - 14) =    -12.01406  eV     2   --> G_6+  L_5+     
     e( 15 - 16) =    -11.82110  eV     2   --> G_4+  L_6+     
     e( 17 - 18) =    -11.82041  eV     2   --> G_5-  L_4-     
     e( 17 - 18) =    -11.82041  eV     2   --> G_6-  L_5-     
     e( 19 - 20) =    -11.80967  eV     2   --> G_4-  L_6-     
     e( 21 - 22) =     -3.46730  eV     2   --> G_4+  L_6+     
     e( 23 - 24) =      1.82482  eV     2   --> G_4-  L_6-     
     e( 25 - 26) =      6.44437  eV     2   --> G_4+  L_6+     
     e( 27 - 28) =      8.64985  eV     2   --> G_4+  L_6+     
     e( 29 - 30) =      8.78908  eV     2   --> G_5+  L_4+     
     e( 29 - 30) =      8.78908  eV     2   --> G_6+  L_5+     
     e( 31 - 32) =     10.12476  eV     2   --> G_4-  L_6-     
     e( 33 - 34) =     12.49079  eV     2   --> G_4-  L_6-     
     e( 35 - 36) =     12.87239  eV     2   --> G_5-  L_4-     
     e( 35 - 36) =     12.87239  eV     2   --> G_6-  L_5-     
     e( 37 - 38) =     14.94526  eV     2   --> G_4-  L_6-     

 **************************************************************************
 
     BANDS        :  6m16.18s CPU     6m21.99s WALL

 
   This run was terminated on:  17:49:24  23Mar2020            

=------------------------------------------------------------------------------=
   JOB DONE.
=------------------------------------------------------------------------------=
