mpijob CMD    : mpirun -f /tmp/mpiexec.params.k014709.12558
mpijob PARAMS : -d /home/k0147/k014709/research/dft/get_rep/program/example/Bi_soc
        r1i0n0 24 omplace -nt 1
        "/home/k0147/k014709/research/dft/qe-6.2/bin/pw.x"

SGI MPT Placement option
--------------------------
omplace -nt 1

Node   MPI
------------
r1i0n0 24


     Program PWSCF v.6.2 (svn rev. 13949:13950) starts on 23Mar2020 at 17:52: 9 

     This program is part of the open-source Quantum ESPRESSO suite
     for quantum simulation of materials; please cite
         "P. Giannozzi et al., J. Phys.:Condens. Matter 21 395502 (2009);
         "P. Giannozzi et al., J. Phys.:Condens. Matter 29 465901 (2017);
          URL http://www.quantum-espresso.org", 
     in publications or presentations arising from this work. More details at
     http://www.quantum-espresso.org/quote

     Parallel version (MPI), running on    24 processors

     MPI processes distributed on     1 nodes
     R & G space division:  proc/nbgrp/npool/nimage =      24
     Waiting for input...
     Reading input from standard input

     Current dimensions of program PWSCF are:
     Max number of different atomic species (ntypx) = 10
     Max number of k-points (npk) =  40000
     Max angular momentum in pseudopotentials (lmaxx) =  3

     Atomic positions and unit cell read from directory:
     /work/k0147/k014709/rep/Bi/Bi.save/
 
     Message from routine readpp:
     file /work/k0147/k014709/rep/Bi/Bi.save/Bi_ONCV_PBE_fr.upf not found

     Subspace diagonalization in iterative solution of the eigenvalue problem:
     a serial algorithm will be used

 
     Parallelization info
     --------------------
     sticks:   dense  smooth     PW     G-vecs:    dense   smooth      PW
     Min          91      91     25                 2787     2787     402
     Max          92      92     26                 2793     2793     405
     Sum        2197    2197    609                66925    66925    9691
 


     bravais-lattice index     =            0
     lattice parameter (alat)  =       9.0662  a.u.
     unit-cell volume          =     495.7043 (a.u.)^3
     number of atoms/cell      =            2
     number of atomic types    =            1
     number of electrons       =        30.00
     number of Kohn-Sham states=           38
     kinetic-energy cutoff     =     100.0000  Ry
     charge density cutoff     =     400.0000  Ry
     Exchange-correlation      = PBE ( 1  4  3  4 0 0)
     Non magnetic calculation with spin-orbit


     celldm(1)=   9.066241  celldm(2)=   0.000000  celldm(3)=   0.000000
     celldm(4)=   0.000000  celldm(5)=   0.000000  celldm(6)=   0.000000

     crystal axes: (cart. coord. in units of alat)
               a(1) = (   0.480401   0.277359   0.832038 )  
               a(2) = (  -0.480401   0.277359   0.832038 )  
               a(3) = (   0.000000  -0.554719   0.832038 )  

     reciprocal axes: (cart. coord. in units 2 pi/alat)
               b(1) = (  1.040798  0.600905  0.400623 )  
               b(2) = ( -1.040798  0.600905  0.400623 )  
               b(3) = (  0.000000 -1.201810  0.400623 )  


     PseudoPot. # 1 for Bi read from file:
     ~/research/dft/ONCVPSP-master/abinit/Bi_ONCV_PBE_fr.upf
     MD5 check sum: Not computed, couldn't open file
     Pseudo is Norm-conserving + core correction, Zval = 15.0
     Generated using ONCVPSP code by D. R. Hamann
     Using radial grid of 1562 points, 10 beta functions with: 
                l(1) =   0
                l(2) =   0
                l(3) =   1
                l(4) =   1
                l(5) =   1
                l(6) =   1
                l(7) =   2
                l(8) =   2
                l(9) =   2
               l(10) =   2

     atomic species   valence    mass     pseudopotential
        Bi            15.00   208.98040     Bi( 1.00)

     12 Sym. Ops., with inversion, found



   Cartesian axes

     site n.     atom                  positions (alat units)
         1           Bi  tau(   1) = (   0.0000000   0.0000000   0.6670014  )
         2           Bi  tau(   2) = (   0.4804007   0.2773595   0.1650364  )

     number of k points=     8  Methfessel-Paxton smearing, width (Ry)=  0.0100
                       cart. coord. in units 2pi/alat
        k(    1) = (   0.0000000   0.0000000   0.0000000), wk =   0.1250000
        k(    2) = (   0.5203989   0.3004525   0.2003114), wk =   0.1250000
        k(    3) = (  -0.5203989   0.3004525   0.2003114), wk =   0.1250000
        k(    4) = (   0.0000000  -0.6009049   0.2003114), wk =   0.1250000
        k(    5) = (  -0.5203989  -0.3004525   0.4006228), wk =   0.1250000
        k(    6) = (   0.5203989  -0.3004525   0.4006228), wk =   0.1250000
        k(    7) = (   0.0000000   0.6009049   0.4006228), wk =   0.1250000
        k(    8) = (   0.0000000   0.0000000   0.6009342), wk =   0.1250000

     Dense  grid:    66925 G-vectors     FFT dimensions: (  60,  60,  60)

     Estimated max dynamical RAM per process >      13.66 MB

     Estimated total dynamical RAM >     327.79 MB

     The potential is recalculated from file :
     /work/k0147/k014709/rep/Bi/Bi.save/charge-density.dat

     Starting wfc are   36 randomized atomic wfcs +    2 random wfc

     Band Structure Calculation
     Davidson diagonalization with overlap

     ethr =  3.33E-11,  avg # of iterations = 16.9

     total cpu time spent up to now is        4.5 secs

     End of band structure calculation

          k = 0.0000 0.0000 0.0000 (  8383 PWs)   bands (ev):

   -14.9526 -14.9526 -14.9395 -14.9395 -14.8855 -14.8855 -14.8811 -14.8811
   -12.0380 -12.0380 -12.0152 -12.0152 -12.0141 -12.0141 -11.8211 -11.8211
   -11.8204 -11.8204 -11.8097 -11.8097  -3.4673  -3.4673   1.8248   1.8248
     6.4444   6.4444   8.6498   8.6498   8.7891   8.7891  10.1248  10.1248
    12.4908  12.4908  12.8724  12.8724  14.9453  14.9453

          k = 0.5204 0.3005 0.2003 (  8404 PWs)   bands (ev):

   -14.9352 -14.9352 -14.9209 -14.9209 -14.8960 -14.8960 -14.8858 -14.8858
   -11.9986 -11.9986 -11.9733 -11.9733 -11.9233 -11.9233 -11.9224 -11.9224
   -11.8698 -11.8698 -11.8519 -11.8519  -1.6671  -1.6671  -1.0111  -1.0111
     7.3280   7.3280   7.3944   7.3944   9.1489   9.1489   9.2263   9.2263
    10.1473  10.1473  10.5367  10.5367  16.7073  16.7073

          k =-0.5204 0.3005 0.2003 (  8404 PWs)   bands (ev):

   -14.9352 -14.9352 -14.9209 -14.9209 -14.8960 -14.8960 -14.8858 -14.8858
   -11.9986 -11.9986 -11.9733 -11.9733 -11.9233 -11.9233 -11.9224 -11.9224
   -11.8698 -11.8698 -11.8519 -11.8519  -1.6671  -1.6671  -1.0111  -1.0111
     7.3280   7.3280   7.3944   7.3944   9.1489   9.1489   9.2263   9.2263
    10.1473  10.1473  10.5367  10.5367  16.7073  16.7073

          k = 0.0000-0.6009 0.2003 (  8404 PWs)   bands (ev):

   -14.9352 -14.9352 -14.9209 -14.9209 -14.8960 -14.8960 -14.8858 -14.8858
   -11.9986 -11.9986 -11.9733 -11.9733 -11.9233 -11.9233 -11.9224 -11.9224
   -11.8698 -11.8698 -11.8519 -11.8519  -1.6671  -1.6671  -1.0111  -1.0111
     7.3280   7.3280   7.3944   7.3944   9.1489   9.1489   9.2263   9.2263
    10.1473  10.1473  10.5367  10.5367  16.7073  16.7073

          k =-0.5204-0.3005 0.4006 (  8330 PWs)   bands (ev):

   -14.9525 -14.9525 -14.9284 -14.9284 -14.8895 -14.8895 -14.8724 -14.8724
   -12.0355 -12.0355 -11.9795 -11.9795 -11.9473 -11.9473 -11.9005 -11.9005
   -11.8685 -11.8685 -11.7998 -11.7998  -1.7509  -1.7509  -0.0558  -0.0558
     4.6720   4.6720   5.6465   5.6465   7.0173   7.0173  11.5053  11.5053
    13.2108  13.2108  15.2341  15.2341  15.5176  15.5176

          k = 0.5204-0.3005 0.4006 (  8330 PWs)   bands (ev):

   -14.9525 -14.9525 -14.9284 -14.9284 -14.8895 -14.8895 -14.8724 -14.8724
   -12.0355 -12.0355 -11.9795 -11.9795 -11.9473 -11.9473 -11.9005 -11.9005
   -11.8685 -11.8685 -11.7998 -11.7998  -1.7509  -1.7509  -0.0558  -0.0558
     4.6720   4.6720   5.6465   5.6465   7.0173   7.0173  11.5053  11.5053
    13.2108  13.2108  15.2341  15.2341  15.5176  15.5176

          k = 0.0000 0.6009 0.4006 (  8330 PWs)   bands (ev):

   -14.9525 -14.9525 -14.9284 -14.9284 -14.8895 -14.8895 -14.8724 -14.8724
   -12.0355 -12.0355 -11.9795 -11.9795 -11.9473 -11.9473 -11.9005 -11.9005
   -11.8685 -11.8685 -11.7998 -11.7998  -1.7509  -1.7509  -0.0558  -0.0558
     4.6720   4.6720   5.6465   5.6465   7.0173   7.0173  11.5053  11.5053
    13.2108  13.2108  15.2341  15.2341  15.5176  15.5176

          k = 0.0000 0.0000 0.6009 (  8340 PWs)   bands (ev):

   -14.9397 -14.9397 -14.9187 -14.9187 -14.8924 -14.8924 -14.8922 -14.8922
   -12.0100 -12.0100 -11.9788 -11.9788 -11.9690 -11.9690 -11.8717 -11.8717
   -11.8536 -11.8536 -11.8514 -11.8514  -2.3497  -2.3497  -0.3627  -0.3627
     7.3993   7.3993   7.8066   7.8066   9.2941   9.2941   9.5894   9.5894
    10.2763  10.2763  10.5445  10.5445  16.1631  16.1631

     Writing output data file Bi.save
 
     init_run     :      0.07s CPU      0.29s WALL (       1 calls)
     electrons    :      3.28s CPU      3.65s WALL (       1 calls)

     Called by init_run:
     wfcinit      :      0.00s CPU      0.00s WALL (       1 calls)
     potinit      :      0.02s CPU      0.03s WALL (       1 calls)

     Called by electrons:
     c_bands      :      3.28s CPU      3.64s WALL (       1 calls)
     v_of_rho     :      0.00s CPU      0.01s WALL (       1 calls)

     Called by c_bands:
     init_us_2    :      0.00s CPU      0.00s WALL (       8 calls)
     cegterg      :      2.98s CPU      3.06s WALL (       8 calls)

     Called by sum_band:

     Called by *egterg:
     h_psi        :      2.27s CPU      2.49s WALL (     151 calls)
     g_psi        :      0.02s CPU      0.01s WALL (     135 calls)
     cdiaghg      :      0.48s CPU      0.66s WALL (     143 calls)

     Called by h_psi:
     h_psi:pot    :      2.26s CPU      2.48s WALL (     151 calls)
     h_psi:calbec :      0.04s CPU      0.17s WALL (     151 calls)
     vloc_psi     :      2.17s CPU      2.23s WALL (     151 calls)
     add_vuspsi   :      0.04s CPU      0.08s WALL (     151 calls)

     General routines
     calbec       :      0.04s CPU      0.16s WALL (     151 calls)
     fft          :      0.00s CPU      0.03s WALL (      14 calls)
     fftw         :      1.96s CPU      2.04s WALL (   12224 calls)
     davcio       :      0.01s CPU      0.01s WALL (      16 calls)
 
     Parallel routines
     fft_scatt_xy :      0.20s CPU      0.16s WALL (   12238 calls)
     fft_scatt_yz :      0.69s CPU      0.73s WALL (   12238 calls)
 
     PWSCF        :     4.14s CPU         5.08s WALL

 
   This run was terminated on:  17:52:14  23Mar2020            

=------------------------------------------------------------------------------=
   JOB DONE.
=------------------------------------------------------------------------------=
