mpijob CMD    : mpirun -f /tmp/mpiexec.params.k014709.11254
mpijob PARAMS : -d /home/k0147/k014709/research/dft/get_rep/program/example/Bi_soc
        r1i0n0 24 omplace -nt 1
        "/home/k0147/k014709/research/dft/qe-6.2/bin/pw.x"

SGI MPT Placement option
--------------------------
omplace -nt 1

Node   MPI
------------
r1i0n0 24


     Program PWSCF v.6.2 (svn rev. 13949:13950) starts on 23Mar2020 at 17:38:21 

     This program is part of the open-source Quantum ESPRESSO suite
     for quantum simulation of materials; please cite
         "P. Giannozzi et al., J. Phys.:Condens. Matter 21 395502 (2009);
         "P. Giannozzi et al., J. Phys.:Condens. Matter 29 465901 (2017);
          URL http://www.quantum-espresso.org", 
     in publications or presentations arising from this work. More details at
     http://www.quantum-espresso.org/quote

     Parallel version (MPI), running on    24 processors

     MPI processes distributed on     1 nodes
     R & G space division:  proc/nbgrp/npool/nimage =      24
     Waiting for input...
     Reading input from standard input

     Current dimensions of program PWSCF are:
     Max number of different atomic species (ntypx) = 10
     Max number of k-points (npk) =  40000
     Max angular momentum in pseudopotentials (lmaxx) =  3

     Subspace diagonalization in iterative solution of the eigenvalue problem:
     a serial algorithm will be used

 
     Parallelization info
     --------------------
     sticks:   dense  smooth     PW     G-vecs:    dense   smooth      PW
     Min          91      91     26                 2787     2787     435
     Max          92      92     27                 2793     2793     437
     Sum        2197    2197    641                66925    66925   10459
 


     bravais-lattice index     =            0
     lattice parameter (alat)  =       9.0662  a.u.
     unit-cell volume          =     495.7043 (a.u.)^3
     number of atoms/cell      =            2
     number of atomic types    =            1
     number of electrons       =        30.00
     number of Kohn-Sham states=           38
     kinetic-energy cutoff     =     100.0000  Ry
     charge density cutoff     =     400.0000  Ry
     convergence threshold     =      1.0E-08
     mixing beta               =       0.3000
     number of iterations used =            8  plain     mixing
     Exchange-correlation      = PBE ( 1  4  3  4 0 0)
     Non magnetic calculation with spin-orbit


     celldm(1)=   9.066241  celldm(2)=   0.000000  celldm(3)=   0.000000
     celldm(4)=   0.000000  celldm(5)=   0.000000  celldm(6)=   0.000000

     crystal axes: (cart. coord. in units of alat)
               a(1) = (   0.480401   0.277359   0.832038 )  
               a(2) = (  -0.480401   0.277359   0.832038 )  
               a(3) = (   0.000000  -0.554719   0.832038 )  

     reciprocal axes: (cart. coord. in units 2 pi/alat)
               b(1) = (  1.040798  0.600905  0.400623 )  
               b(2) = ( -1.040798  0.600905  0.400623 )  
               b(3) = (  0.000000 -1.201810  0.400623 )  


     PseudoPot. # 1 for Bi read from file:
     ~/research/dft/ONCVPSP-master/abinit/Bi_ONCV_PBE_fr.upf
     MD5 check sum: Not computed, couldn't open file
     Pseudo is Norm-conserving + core correction, Zval = 15.0
     Generated using ONCVPSP code by D. R. Hamann
     Using radial grid of 1562 points, 10 beta functions with: 
                l(1) =   0
                l(2) =   0
                l(3) =   1
                l(4) =   1
                l(5) =   1
                l(6) =   1
                l(7) =   2
                l(8) =   2
                l(9) =   2
               l(10) =   2

     atomic species   valence    mass     pseudopotential
        Bi            15.00   208.98040     Bi( 1.00)

     12 Sym. Ops., with inversion, found



   Cartesian axes

     site n.     atom                  positions (alat units)
         1           Bi  tau(   1) = (   0.0000000   0.0000000   0.6670014  )
         2           Bi  tau(   2) = (   0.4804007   0.2773595   0.1650364  )

     number of k points=    65  Methfessel-Paxton smearing, width (Ry)=  0.0100
                       cart. coord. in units 2pi/alat
        k(    1) = (   0.0000000   0.0000000   0.0000000), wk =   0.0019531
        k(    2) = (   0.0000000  -0.1502262   0.0500779), wk =   0.0117188
        k(    3) = (   0.0000000  -0.3004525   0.1001557), wk =   0.0117188
        k(    4) = (   0.0000000  -0.4506787   0.1502336), wk =   0.0117188
        k(    5) = (   0.0000000   0.6009049  -0.2003114), wk =   0.0058594
        k(    6) = (  -0.1300997  -0.0751131   0.1001557), wk =   0.0117188
        k(    7) = (  -0.1300997  -0.2253393   0.1502336), wk =   0.0234375
        k(    8) = (  -0.1300997  -0.3755656   0.2003114), wk =   0.0234375
        k(    9) = (  -0.1300997   0.6760180  -0.1502336), wk =   0.0234375
        k(   10) = (  -0.1300997   0.5257918  -0.1001557), wk =   0.0234375
        k(   11) = (  -0.1300997   0.3755656  -0.0500779), wk =   0.0234375
        k(   12) = (  -0.1300997   0.2253393   0.0000000), wk =   0.0117188
        k(   13) = (  -0.2601995  -0.1502262   0.2003114), wk =   0.0117188
        k(   14) = (  -0.2601995  -0.3004525   0.2503893), wk =   0.0234375
        k(   15) = (  -0.2601995   0.7511312  -0.1001557), wk =   0.0234375
        k(   16) = (  -0.2601995   0.6009049  -0.0500779), wk =   0.0234375
        k(   17) = (  -0.2601995   0.4506787   0.0000000), wk =   0.0117188
        k(   18) = (  -0.3902992  -0.2253393   0.3004671), wk =   0.0117188
        k(   19) = (  -0.3902992   0.8262443  -0.0500779), wk =   0.0234375
        k(   20) = (  -0.3902992   0.6760180   0.0000000), wk =   0.0117188
        k(   21) = (   0.5203989   0.3004525  -0.4006228), wk =   0.0058594
        k(   22) = (   0.0000000   0.0000000   0.1502336), wk =   0.0039062
        k(   23) = (   0.0000000  -0.1502262   0.2003114), wk =   0.0117188
        k(   24) = (   0.0000000  -0.3004525   0.2503893), wk =   0.0117188
        k(   25) = (   0.0000000   0.7511312  -0.1001557), wk =   0.0117188
        k(   26) = (   0.0000000   0.6009049  -0.0500779), wk =   0.0117188
        k(   27) = (   0.0000000   0.4506787   0.0000000), wk =   0.0117188
        k(   28) = (   0.0000000   0.3004525   0.0500779), wk =   0.0117188
        k(   29) = (  -0.1300997  -0.0751131   0.2503893), wk =   0.0117188
        k(   30) = (  -0.1300997  -0.2253393   0.3004671), wk =   0.0234375
        k(   31) = (  -0.1300997   0.8262443  -0.0500779), wk =   0.0234375
        k(   32) = (  -0.1300997   0.6760180   0.0000000), wk =   0.0234375
        k(   33) = (  -0.1300997   0.5257918   0.0500779), wk =   0.0234375
        k(   34) = (  -0.1300997   0.3755656   0.1001557), wk =   0.0234375
        k(   35) = (  -0.2601995  -0.1502262   0.3505450), wk =   0.0117188
        k(   36) = (  -0.2601995   0.9013574   0.0000000), wk =   0.0234375
        k(   37) = (  -0.2601995   0.7511312   0.0500779), wk =   0.0234375
        k(   38) = (  -0.2601995   0.6009049   0.1001557), wk =   0.0234375
        k(   39) = (  -0.2601995   0.4506787   0.1502336), wk =   0.0234375
        k(   40) = (   0.6504987   0.3755656  -0.3505450), wk =   0.0117188
        k(   41) = (   0.6504987   0.2253393  -0.3004671), wk =   0.0234375
        k(   42) = (   0.6504987   0.0751131  -0.2503893), wk =   0.0234375
        k(   43) = (   0.6504987  -0.0751131  -0.2003114), wk =   0.0117188
        k(   44) = (   0.5203989   0.3004525  -0.2503893), wk =   0.0117188
        k(   45) = (   0.5203989   0.1502262  -0.2003114), wk =   0.0234375
        k(   46) = (   0.3902992   0.2253393  -0.1502336), wk =   0.0117188
        k(   47) = (   0.0000000   0.0000000   0.3004671), wk =   0.0039062
        k(   48) = (   0.0000000  -0.1502262   0.3505450), wk =   0.0117188
        k(   49) = (   0.0000000   0.9013574   0.0000000), wk =   0.0117188
        k(   50) = (   0.0000000   0.7511312   0.0500779), wk =   0.0117188
        k(   51) = (   0.0000000   0.6009049   0.1001557), wk =   0.0117188
        k(   52) = (  -0.1300997  -0.0751131   0.4006228), wk =   0.0117188
        k(   53) = (  -0.1300997   0.9764705   0.0500779), wk =   0.0234375
        k(   54) = (  -0.1300997   0.8262443   0.1001557), wk =   0.0234375
        k(   55) = (  -0.1300997   0.6760180   0.1502336), wk =   0.0234375
        k(   56) = (   0.7805984   0.4506787  -0.3004671), wk =   0.0117188
        k(   57) = (   0.7805984   0.3004525  -0.2503893), wk =   0.0234375
        k(   58) = (   0.7805984   0.1502262  -0.2003114), wk =   0.0117188
        k(   59) = (   0.6504987   0.3755656  -0.2003114), wk =   0.0117188
        k(   60) = (   0.0000000   0.0000000   0.4507007), wk =   0.0039062
        k(   61) = (   0.0000000   1.0515836   0.1001557), wk =   0.0117188
        k(   62) = (   0.0000000   0.9013574   0.1502336), wk =   0.0117188
        k(   63) = (   0.9106981   0.5257918  -0.2503893), wk =   0.0117188
        k(   64) = (   0.9106981   0.3755656  -0.2003114), wk =   0.0117188
        k(   65) = (   0.0000000   0.0000000  -0.6009342), wk =   0.0019531

     Dense  grid:    66925 G-vectors     FFT dimensions: (  60,  60,  60)

     Estimated max dynamical RAM per process >      43.11 MB

     Estimated total dynamical RAM >       1.01 GB

     Initial potential from superposition of free atoms

     starting charge   29.99783, renormalised to   30.00000
     Starting wfc are   36 randomized atomic wfcs +    2 random wfc

     total cpu time spent up to now is        2.5 secs

     Self-consistent Calculation

     iteration #  1     ecut=   100.00 Ry     beta= 0.30
     Davidson diagonalization with overlap
     ethr =  1.00E-02,  avg # of iterations =  4.3

     Threshold (ethr) on eigenvalues was too large:
     Diagonalizing with lowered threshold

     Davidson diagonalization with overlap
     ethr =  1.69E-05,  avg # of iterations =  4.2

     total cpu time spent up to now is       18.8 secs

     total energy              =    -327.59859620 Ry
     Harris-Foulkes estimate   =    -327.59886824 Ry
     estimated scf accuracy    <       0.00504621 Ry

     iteration #  2     ecut=   100.00 Ry     beta= 0.30
     Davidson diagonalization with overlap
     ethr =  1.68E-05,  avg # of iterations =  1.0

     total cpu time spent up to now is       24.9 secs

     total energy              =    -327.59847385 Ry
     Harris-Foulkes estimate   =    -327.59863480 Ry
     estimated scf accuracy    <       0.00227600 Ry

     iteration #  3     ecut=   100.00 Ry     beta= 0.30
     Davidson diagonalization with overlap
     ethr =  7.59E-06,  avg # of iterations =  1.6

     total cpu time spent up to now is       31.2 secs

     total energy              =    -327.59860714 Ry
     Harris-Foulkes estimate   =    -327.59861804 Ry
     estimated scf accuracy    <       0.00004508 Ry

     iteration #  4     ecut=   100.00 Ry     beta= 0.30
     Davidson diagonalization with overlap
     ethr =  1.50E-07,  avg # of iterations =  2.2

     total cpu time spent up to now is       39.4 secs

     total energy              =    -327.59861995 Ry
     Harris-Foulkes estimate   =    -327.59861949 Ry
     estimated scf accuracy    <       0.00000658 Ry

     iteration #  5     ecut=   100.00 Ry     beta= 0.30
     Davidson diagonalization with overlap
     ethr =  2.19E-08,  avg # of iterations =  1.1

     total cpu time spent up to now is       45.5 secs

     total energy              =    -327.59861986 Ry
     Harris-Foulkes estimate   =    -327.59862017 Ry
     estimated scf accuracy    <       0.00000093 Ry

     iteration #  6     ecut=   100.00 Ry     beta= 0.30
     Davidson diagonalization with overlap
     ethr =  3.09E-09,  avg # of iterations =  2.0

     total cpu time spent up to now is       52.7 secs

     total energy              =    -327.59862001 Ry
     Harris-Foulkes estimate   =    -327.59862006 Ry
     estimated scf accuracy    <       0.00000012 Ry

     iteration #  7     ecut=   100.00 Ry     beta= 0.30
     Davidson diagonalization with overlap
     ethr =  3.98E-10,  avg # of iterations =  2.0

     total cpu time spent up to now is       60.3 secs

     End of self-consistent calculation

          k = 0.0000 0.0000 0.0000 (  8383 PWs)   bands (ev):

   -14.9531 -14.9531 -14.9401 -14.9401 -14.8861 -14.8861 -14.8817 -14.8817
   -12.0385 -12.0385 -12.0157 -12.0157 -12.0146 -12.0146 -11.8217 -11.8217
   -11.8210 -11.8210 -11.8102 -11.8102  -3.4675  -3.4675   1.8246   1.8246
     6.4442   6.4442   8.6497   8.6497   8.7890   8.7890  10.1246  10.1246
    12.4907  12.4907  12.8723  12.8723  14.9455  14.9456

          k = 0.0000-0.1502 0.0501 (  8368 PWs)   bands (ev):

   -14.9506 -14.9506 -14.9382 -14.9382 -14.8867 -14.8867 -14.8825 -14.8825
   -12.0328 -12.0328 -12.0218 -12.0218 -11.9963 -11.9963 -11.8414 -11.8414
   -11.8182 -11.8182 -11.8142 -11.8142  -3.3287  -3.3287   1.5118   1.5118
     6.5212   6.5212   8.5829   8.5829   8.7258   8.7258   9.9997   9.9997
    12.0805  12.0805  12.3793  12.3793  14.4400  14.4400

          k = 0.0000-0.3005 0.1002 (  8390 PWs)   bands (ev):

   -14.9444 -14.9444 -14.9330 -14.9330 -14.8891 -14.8891 -14.8842 -14.8842
   -12.0209 -12.0209 -12.0118 -12.0118 -11.9688 -11.9688 -11.8710 -11.8710
   -11.8384 -11.8384 -11.8212 -11.8212  -2.9203  -2.9203   0.7199   0.7199
     6.7135   6.7135   8.2338   8.2338   8.8087   8.8087   9.6637   9.6637
    11.1479  11.1479  11.6239  11.6239  14.5640  14.5640

          k = 0.0000-0.4507 0.1502 (  8389 PWs)   bands (ev):

   -14.9382 -14.9382 -14.9257 -14.9257 -14.8936 -14.8936 -14.8858 -14.8858
   -12.0076 -12.0076 -11.9888 -11.9888 -11.9401 -11.9401 -11.9027 -11.9027
   -11.8618 -11.8618 -11.8387 -11.8387  -2.2758  -2.2758  -0.2691  -0.2691
     6.9904   6.9904   7.8009   7.8009   8.9677   8.9677   9.3851   9.3851
    10.4119  10.4119  10.8795  10.8795  15.5436  15.5436

          k = 0.0000 0.6009-0.2003 (  8404 PWs)   bands (ev):

   -14.9358 -14.9358 -14.9215 -14.9215 -14.8966 -14.8966 -14.8864 -14.8864
   -11.9992 -11.9992 -11.9738 -11.9738 -11.9239 -11.9239 -11.9229 -11.9229
   -11.8704 -11.8704 -11.8525 -11.8525  -1.6673  -1.6673  -1.0113  -1.0113
     7.3279   7.3279   7.3943   7.3943   9.1488   9.1488   9.2262   9.2262
    10.1472  10.1472  10.5366  10.5366  16.7072  16.7072

          k =-0.1301-0.0751 0.1002 (  8355 PWs)   bands (ev):

   -14.9512 -14.9512 -14.9366 -14.9366 -14.8882 -14.8882 -14.8815 -14.8815
   -12.0344 -12.0344 -12.0181 -12.0181 -11.9951 -11.9951 -11.8443 -11.8443
   -11.8228 -11.8228 -11.8105 -11.8105  -3.2930  -3.2930   1.4550   1.4550
     6.4449   6.4449   8.2988   8.2988   8.9806   8.9806   9.9160   9.9160
    11.7896  11.7896  12.8661  12.8661  14.2952  14.2952

          k =-0.1301-0.2253 0.1502 (  8374 PWs)   bands (ev):

   -14.9484 -14.9484 -14.9314 -14.9314 -14.8914 -14.8914 -14.8811 -14.8811
   -12.0293 -12.0293 -12.0089 -12.0089 -11.9747 -11.9747 -11.8674 -11.8674
   -11.8367 -11.8367 -11.8134 -11.8134  -2.9878  -2.9878   0.9141   0.9141
     6.4040   6.4040   7.8721   7.8721   8.6452   8.6452  10.1463  10.1463
    11.4069  11.4069  12.6092  12.6092  13.9457  13.9457

          k =-0.1301-0.3756 0.2003 (  8387 PWs)   bands (ev):

   -14.9433 -14.9433 -14.9253 -14.9253 -14.8952 -14.8952 -14.8816 -14.8816
   -12.0177 -12.0177 -11.9916 -11.9916 -11.9493 -11.9493 -11.8937 -11.8937
   -11.8579 -11.8579 -11.8269 -11.8269  -2.4359  -2.4359   0.0653   0.0653
     6.4715   6.4715   7.3619   7.3619   8.3123   8.3123  10.3928  10.3928
    10.9689  10.9689  11.9937  11.9937  14.4386  14.4386

          k =-0.1301 0.6760-0.1502 (  8375 PWs)   bands (ev):

   -14.9399 -14.9399 -14.9196 -14.9196 -14.8998 -14.8998 -14.8817 -14.8817
   -12.0060 -12.0060 -11.9750 -11.9750 -11.9351 -11.9351 -11.9102 -11.9102
   -11.8717 -11.8717 -11.8435 -11.8435  -1.7280  -1.7280  -0.8273  -0.8273
     6.5330   6.5330   7.0974   7.0974   8.3207   8.3207  10.0451  10.0451
    10.8430  10.8430  11.6557  11.6557  15.8215  15.8215

          k =-0.1301 0.5258-0.1002 (  8397 PWs)   bands (ev):

   -14.9412 -14.9412 -14.9178 -14.9178 -14.9016 -14.9016 -14.8810 -14.8810
   -12.0092 -12.0092 -11.9746 -11.9746 -11.9326 -11.9326 -11.9152 -11.9152
   -11.8697 -11.8697 -11.8396 -11.8396  -1.9071  -1.9071  -0.6254  -0.6254
     6.3991   6.3991   7.4347   7.4347   8.5116   8.5116   9.8122   9.8122
    10.4237  10.4237  12.0173  12.0173  15.5432  15.5432

          k =-0.1301 0.3756-0.0501 (  8393 PWs)   bands (ev):

   -14.9449 -14.9449 -14.9251 -14.9251 -14.8961 -14.8961 -14.8807 -14.8807
   -12.0214 -12.0214 -11.9944 -11.9944 -11.9523 -11.9523 -11.8926 -11.8926
   -11.8523 -11.8523 -11.8229 -11.8229  -2.5994  -2.5994   0.2833   0.2833
     6.3908   6.3908   7.9952   7.9952   8.5896   8.5896   9.9524   9.9524
    10.3024  10.3024  12.4789  12.4789  14.4618  14.4618

          k =-0.1301 0.2253 0.0000 (  8384 PWs)   bands (ev):

   -14.9483 -14.9483 -14.9338 -14.9338 -14.8899 -14.8899 -14.8816 -14.8816
   -12.0292 -12.0292 -12.0142 -12.0142 -11.9784 -11.9784 -11.8624 -11.8624
   -11.8315 -11.8315 -11.8133 -11.8133  -3.0922  -3.0922   1.0715   1.0715
     6.4967   6.4967   8.3807   8.3807   8.6908   8.6908   9.8776   9.8776
    11.1420  11.1420  12.6044  12.6044  14.1032  14.1032

          k =-0.2602-0.1502 0.2003 (  8374 PWs)   bands (ev):

   -14.9511 -14.9511 -14.9266 -14.9266 -14.8948 -14.8948 -14.8780 -14.8780
   -12.0345 -12.0345 -11.9975 -11.9975 -11.9671 -11.9671 -11.8817 -11.8817
   -11.8445 -11.8445 -11.8061 -11.8061  -2.8003  -2.8003   0.7695   0.7695
     6.0692   6.0692   7.1865   7.1865   7.9185   7.9185  11.2943  11.2943
    11.6274  11.6274  12.9339  12.9339  14.2374  14.2375

          k =-0.2602-0.3005 0.2504 (  8368 PWs)   bands (ev):

   -14.9498 -14.9498 -14.9239 -14.9239 -14.8962 -14.8962 -14.8767 -14.8767
   -12.0306 -12.0306 -11.9852 -11.9852 -11.9526 -11.9526 -11.8976 -11.8976
   -11.8586 -11.8586 -11.8102 -11.8102  -2.3795  -2.3795   0.2669   0.2669
     5.8568   5.8568   6.4729   6.4729   7.5947   7.5947  11.5315  11.5315
    12.3337  12.3337  12.8782  12.8782  13.9575  13.9575

          k =-0.2602 0.7511-0.1002 (  8370 PWs)   bands (ev):

   -14.9465 -14.9465 -14.9220 -14.9220 -14.8979 -14.8979 -14.8761 -14.8761
   -12.0201 -12.0201 -11.9768 -11.9768 -11.9436 -11.9436 -11.9012 -11.9012
   -11.8726 -11.8726 -11.8243 -11.8243  -1.7798  -1.7798  -0.4700  -0.4700
     5.5585   5.5585   6.3578   6.3578   7.5890   7.5890  11.1219  11.1219
    12.4601  12.4601  13.1959  13.1959  14.1732  14.1732

          k =-0.2602 0.6009-0.0501 (  8368 PWs)   bands (ev):

   -14.9451 -14.9451 -14.9167 -14.9167 -14.9032 -14.9032 -14.8760 -14.8760
   -12.0133 -12.0133 -11.9738 -11.9738 -11.9370 -11.9370 -11.9094 -11.9094
   -11.8713 -11.8713 -11.8357 -11.8357  -1.3848  -1.3848  -0.9634  -0.9634
     5.4378   5.4378   6.7383   6.7383   7.8822   7.8822  10.4696  10.4696
    11.7232  11.7232  13.6009  13.6009  15.5309  15.5310

          k =-0.2602 0.4507 0.0000 (  8374 PWs)   bands (ev):

   -14.9454 -14.9454 -14.9149 -14.9149 -14.9050 -14.9050 -14.8774 -14.8774
   -12.0174 -12.0174 -11.9765 -11.9765 -11.9368 -11.9368 -11.9126 -11.9126
   -11.8660 -11.8660 -11.8300 -11.8300  -2.0520  -2.0520  -0.3175  -0.3175
     5.7465   5.7465   7.3685   7.3685   8.3569   8.3569   9.9512   9.9512
    10.8591  10.8591  13.4271  13.4271  14.8156  14.8156

          k =-0.3903-0.2253 0.3005 (  8359 PWs)   bands (ev):

   -14.9525 -14.9525 -14.9257 -14.9257 -14.8936 -14.8936 -14.8744 -14.8744
   -12.0357 -12.0357 -11.9799 -11.9799 -11.9509 -11.9509 -11.9027 -11.9027
   -11.8629 -11.8629 -11.8022 -11.8022  -2.1349  -2.1349   0.2002   0.2002
     5.3070   5.3070   5.8924   5.8924   7.2315   7.2315  11.5655  11.5655
    13.0457  13.0457  13.8465  13.8465  14.8755  14.8755

          k =-0.3903 0.8262-0.0501 (  8360 PWs)   bands (ev):

   -14.9513 -14.9513 -14.9269 -14.9269 -14.8926 -14.8926 -14.8735 -14.8735
   -12.0317 -12.0317 -11.9790 -11.9790 -11.9473 -11.9473 -11.9000 -11.9000
   -11.8706 -11.8706 -11.8071 -11.8071  -1.7684  -1.7684  -0.1685  -0.1685
     4.8937   4.8937   5.8355   5.8355   7.1512   7.1512  11.7206  11.7206
    12.9212  12.9212  14.3701  14.3701  14.8977  14.8977

          k =-0.3903 0.6760 0.0000 (  8366 PWs)   bands (ev):

   -14.9484 -14.9484 -14.9239 -14.9239 -14.8963 -14.8963 -14.8736 -14.8736
   -12.0218 -12.0218 -11.9791 -11.9791 -11.9417 -11.9417 -11.9001 -11.9001
   -11.8737 -11.8737 -11.8219 -11.8219  -1.3748  -1.3748  -0.7299  -0.7299
     4.8972   4.8972   6.1524   6.1524   7.3627   7.3627  11.3974  11.3974
    12.9042  12.9042  13.8606  13.8606  14.9430  14.9430

          k = 0.5204 0.3005-0.4006 (  8330 PWs)   bands (ev):

   -14.9531 -14.9531 -14.9290 -14.9290 -14.8900 -14.8900 -14.8730 -14.8730
   -12.0360 -12.0360 -11.9801 -11.9801 -11.9479 -11.9479 -11.9010 -11.9010
   -11.8691 -11.8691 -11.8004 -11.8004  -1.7511  -1.7511  -0.0560  -0.0560
     4.6719   4.6719   5.6464   5.6464   7.0173   7.0173  11.5053  11.5053
    13.2107  13.2107  15.2340  15.2340  15.5175  15.5175

          k = 0.0000 0.0000 0.1502 (  8349 PWs)   bands (ev):

   -14.9514 -14.9514 -14.9377 -14.9377 -14.8868 -14.8868 -14.8828 -14.8828
   -12.0352 -12.0352 -12.0111 -12.0111 -12.0096 -12.0096 -11.8269 -11.8269
   -11.8258 -11.8258 -11.8155 -11.8155  -3.3575  -3.3575   1.5287   1.5287
     6.5499   6.5499   8.6202   8.6202   8.8250   8.8250   9.9629   9.9629
    12.0811  12.0811  12.4589  12.4589  14.4028  14.4029

          k = 0.0000-0.1502 0.2003 (  8362 PWs)   bands (ev):

   -14.9486 -14.9486 -14.9345 -14.9345 -14.8883 -14.8883 -14.8835 -14.8835
   -12.0284 -12.0284 -12.0148 -12.0148 -11.9885 -11.9885 -11.8497 -11.8497
   -11.8267 -11.8267 -11.8199 -11.8199  -3.1494  -3.1494   1.1191   1.1191
     6.4939   6.4939   8.3416   8.3416   9.0692   9.0692   9.7504   9.7504
    11.2125  11.2125  12.6449  12.6449  14.4716  14.4716

          k = 0.0000-0.3005 0.2504 (  8380 PWs)   bands (ev):

   -14.9425 -14.9425 -14.9307 -14.9307 -14.8891 -14.8891 -14.8857 -14.8857
   -12.0141 -12.0141 -12.0079 -12.0079 -11.9605 -11.9605 -11.8782 -11.8782
   -11.8447 -11.8447 -11.8293 -11.8293  -2.6830  -2.6830   0.3691   0.3691
     6.3252   6.3252   7.9637   7.9637   9.0044   9.0044   9.7012   9.7012
    10.5538  10.5538  12.4950  12.4950  14.6894  14.6894

          k = 0.0000 0.7511-0.1002 (  8370 PWs)   bands (ev):

   -14.9370 -14.9370 -14.9277 -14.9277 -14.8904 -14.8904 -14.8871 -14.8871
   -12.0033 -12.0033 -11.9895 -11.9895 -11.9386 -11.9386 -11.9012 -11.9012
   -11.8633 -11.8633 -11.8444 -11.8444  -2.0127  -2.0127  -0.5179  -0.5179
     6.3616   6.3616   7.4118   7.4118   8.7317   8.7317   9.6826   9.6826
    10.7091  10.7091  11.8411  11.8411  15.8779  15.8779

          k = 0.0000 0.6009-0.0501 (  8394 PWs)   bands (ev):

   -14.9388 -14.9388 -14.9227 -14.9227 -14.8956 -14.8956 -14.8837 -14.8837
   -12.0064 -12.0064 -11.9740 -11.9740 -11.9331 -11.9331 -11.9137 -11.9137
   -11.8716 -11.8716 -11.8426 -11.8426  -1.7143  -1.7143  -0.8483  -0.8483
     6.7101   6.7101   6.9309   6.9309   8.3525   8.3525  10.0358  10.0358
    11.0669  11.0669  11.3407  11.3407  15.3005  15.3005

          k = 0.0000 0.4507 0.0000 (  8396 PWs)   bands (ev):

   -14.9440 -14.9440 -14.9235 -14.9235 -14.8963 -14.8963 -14.8811 -14.8811
   -12.0198 -12.0198 -11.9859 -11.9859 -11.9430 -11.9430 -11.9047 -11.9047
   -11.8596 -11.8596 -11.8245 -11.8245  -2.3897  -2.3897   0.0088   0.0088
     6.5918   6.5918   7.3484   7.3484   8.1744   8.1744  10.4572  10.4572
    10.8050  10.8050  11.9224  11.9224  14.2074  14.2074

          k = 0.0000 0.3005 0.0501 (  8364 PWs)   bands (ev):

   -14.9486 -14.9486 -14.9305 -14.9305 -14.8921 -14.8921 -14.8804 -14.8804
   -12.0304 -12.0304 -12.0068 -12.0068 -11.9708 -11.9708 -11.8731 -11.8731
   -11.8383 -11.8383 -11.8115 -11.8115  -2.9610  -2.9610   0.8854   0.8854
     6.4322   6.4322   7.9611   7.9611   8.4294   8.4294  10.1880  10.1880
    11.3015  11.3015  12.5926  12.5926  13.8876  13.8876

          k =-0.1301-0.0751 0.2504 (  8368 PWs)   bands (ev):

   -14.9493 -14.9493 -14.9311 -14.9311 -14.8912 -14.8912 -14.8819 -14.8819
   -12.0306 -12.0306 -12.0062 -12.0062 -11.9858 -11.9858 -11.8564 -11.8564
   -11.8344 -11.8344 -11.8158 -11.8158  -3.0484  -3.0484   0.9616   0.9616
     6.4331   6.4331   7.9354   7.9354   8.7905   8.7905  10.1188  10.1188
    11.4305  11.4305  12.6856  12.6856  14.0910  14.0910

          k =-0.1301-0.2253 0.3005 (  8365 PWs)   bands (ev):

   -14.9473 -14.9473 -14.9274 -14.9274 -14.8933 -14.8933 -14.8811 -14.8811
   -12.0262 -12.0262 -11.9984 -11.9984 -11.9657 -11.9657 -11.8778 -11.8778
   -11.8467 -11.8467 -11.8185 -11.8185  -2.6937  -2.6937   0.4878   0.4878
     6.1032   6.1032   7.3212   7.3212   8.4194   8.4194  10.5907  10.5907
    11.3728  11.3728  12.9661  12.9661  14.1742  14.1742

          k =-0.1301 0.8262-0.0501 (  8374 PWs)   bands (ev):

   -14.9431 -14.9431 -14.9266 -14.9266 -14.8932 -14.8932 -14.8811 -14.8811
   -12.0158 -12.0158 -11.9893 -11.9893 -11.9462 -11.9462 -11.8943 -11.8943
   -11.8620 -11.8620 -11.8304 -11.8304  -2.1243  -2.1243  -0.2113  -0.2113
     5.8684   5.8684   6.6124   6.6124   8.5712   8.5712  10.0693  10.0693
    11.9462  11.9462  13.0293  13.0293  14.5183  14.5183

          k =-0.1301 0.6760 0.0000 (  8375 PWs)   bands (ev):

   -14.9421 -14.9421 -14.9241 -14.9241 -14.8955 -14.8955 -14.8797 -14.8797
   -12.0106 -12.0106 -11.9794 -11.9794 -11.9384 -11.9384 -11.9042 -11.9042
   -11.8698 -11.8698 -11.8380 -11.8380  -1.5448  -1.5448  -0.8555  -0.8555
     5.9545   5.9545   6.1968   6.1968   8.6467   8.6467   9.7581   9.7581
    12.3133  12.3133  12.6472  12.6472  15.4147  15.4147

          k =-0.1301 0.5258 0.0501 (  8384 PWs)   bands (ev):

   -14.9452 -14.9452 -14.9201 -14.9201 -14.8993 -14.8993 -14.8781 -14.8781
   -12.0188 -12.0188 -11.9753 -11.9753 -11.9375 -11.9375 -11.9124 -11.9124
   -11.8683 -11.8683 -11.8269 -11.8269  -1.9709  -1.9709  -0.3762  -0.3762
     5.9543   5.9543   6.5935   6.5935   8.3210   8.3210  10.1356  10.1356
    11.7173  11.7173  12.8968  12.8968  14.4196  14.4196

          k =-0.1301 0.3756 0.1002 (  8362 PWs)   bands (ev):

   -14.9479 -14.9479 -14.9238 -14.9238 -14.8970 -14.8970 -14.8785 -14.8785
   -12.0274 -12.0274 -11.9911 -11.9911 -11.9528 -11.9528 -11.8953 -11.8953
   -11.8532 -11.8532 -11.8151 -11.8151  -2.5776  -2.5776   0.3712   0.3712
     6.1477   6.1477   7.3560   7.3560   8.0671   8.0671  10.7973  10.7973
    11.0378  11.0378  12.8398  12.8398  13.9936  13.9936

          k =-0.2602-0.1502 0.3505 (  8363 PWs)   bands (ev):

   -14.9499 -14.9499 -14.9252 -14.9252 -14.8946 -14.8946 -14.8780 -14.8780
   -12.0316 -12.0316 -11.9875 -11.9875 -11.9621 -11.9621 -11.8877 -11.8877
   -11.8542 -11.8542 -11.8105 -11.8105  -2.4741  -2.4741   0.3605   0.3605
     5.7933   5.7933   6.5884   6.5884   7.6986   7.6986  11.4630  11.4630
    12.4824  12.4824  12.9278  12.9278  14.1568  14.1568

          k =-0.2602 0.9014 0.0000 (  8369 PWs)   bands (ev):

   -14.9489 -14.9489 -14.9266 -14.9266 -14.8930 -14.8930 -14.8767 -14.8767
   -12.0282 -12.0282 -11.9837 -11.9837 -11.9517 -11.9517 -11.8940 -11.8940
   -11.8642 -11.8642 -11.8139 -11.8139  -2.0613  -2.0613  -0.0264  -0.0264
     5.3708   5.3708   5.9791   5.9791   7.7292   7.7292  11.2811  11.2811
    12.9007  12.9007  13.6333  13.6333  14.4758  14.4758

          k =-0.2602 0.7511 0.0501 (  8358 PWs)   bands (ev):

   -14.9469 -14.9469 -14.9261 -14.9261 -14.8942 -14.8942 -14.8754 -14.8754
   -12.0198 -12.0198 -11.9836 -11.9836 -11.9424 -11.9424 -11.8979 -11.8979
   -11.8692 -11.8692 -11.8253 -11.8253  -1.5372  -1.5372  -0.6043  -0.6043
     5.1763   5.1763   5.7093   5.7093   8.1263   8.1263  10.5937  10.5937
    13.3611  13.3611  14.0622  14.0622  14.5361  14.5361

          k =-0.2602 0.6009 0.1002 (  8378 PWs)   bands (ev):

   -14.9465 -14.9465 -14.9204 -14.9204 -14.8997 -14.8997 -14.8750 -14.8750
   -12.0167 -12.0167 -11.9770 -11.9770 -11.9383 -11.9383 -11.9067 -11.9067
   -11.8698 -11.8698 -11.8311 -11.8311  -1.4043  -1.4043  -0.8386  -0.8386
     5.2838   5.2838   6.0462   6.0462   8.4452   8.4452   9.9607   9.9607
    12.8357  12.8357  13.8915  13.8915  15.0986  15.0986

          k =-0.2602 0.4507 0.1502 (  8381 PWs)   bands (ev):

   -14.9458 -14.9458 -14.9174 -14.9174 -14.9025 -14.9025 -14.8770 -14.8770
   -12.0186 -12.0186 -11.9754 -11.9754 -11.9401 -11.9401 -11.9087 -11.9087
   -11.8690 -11.8690 -11.8274 -11.8274  -1.9779  -1.9779  -0.3604  -0.3604
     5.8195   5.8195   6.7921   6.7921   8.1477   8.1477  10.1909  10.1909
    11.7616  11.7616  13.0718  13.0718  14.4485  14.4485

          k = 0.6505 0.3756-0.3505 (  8365 PWs)   bands (ev):

   -14.9510 -14.9510 -14.9287 -14.9287 -14.8905 -14.8905 -14.8750 -14.8750
   -12.0324 -12.0324 -11.9820 -11.9820 -11.9506 -11.9506 -11.8960 -11.8960
   -11.8671 -11.8671 -11.8068 -11.8068  -1.8673  -1.8673  -0.0657  -0.0657
     4.8545   4.8545   5.9008   5.9008   7.2180   7.2180  11.6177  11.6177
    13.0154  13.0154  14.5053  14.5053  14.9858  14.9858

          k = 0.6505 0.2253-0.3005 (  8371 PWs)   bands (ev):

   -14.9500 -14.9500 -14.9284 -14.9284 -14.8912 -14.8912 -14.8741 -14.8741
   -12.0287 -12.0287 -11.9823 -11.9823 -11.9456 -11.9456 -11.8974 -11.8974
   -11.8706 -11.8706 -11.8117 -11.8117  -1.6183  -1.6183  -0.3373  -0.3373
     4.7815   4.7815   5.6944   5.6944   7.4469   7.4469  11.4720  11.4720
    12.8797  12.8797  14.6890  14.6890  15.1897  15.1897

          k = 0.6505 0.0751-0.2504 (  8362 PWs)   bands (ev):

   -14.9478 -14.9478 -14.9230 -14.9230 -14.8972 -14.8972 -14.8740 -14.8740
   -12.0203 -12.0203 -11.9787 -11.9787 -11.9406 -11.9406 -11.9026 -11.9026
   -11.8717 -11.8717 -11.8248 -11.8248  -1.3884  -1.3884  -0.7556  -0.7556
     5.0994   5.0994   5.8354   5.8354   7.9800   7.9800  10.5772  10.5772
    13.3517  13.3517  14.0418  14.0418  14.6265  14.6265

          k = 0.6505-0.0751-0.2003 (  8390 PWs)   bands (ev):

   -14.9446 -14.9446 -14.9144 -14.9144 -14.9054 -14.9054 -14.8765 -14.8765
   -12.0121 -12.0121 -11.9717 -11.9717 -11.9370 -11.9370 -11.9102 -11.9102
   -11.8728 -11.8728 -11.8370 -11.8370  -1.3556  -1.3556  -1.0384  -1.0384
     5.6948   5.6948   6.5741   6.5741   8.2548   8.2548   9.8804   9.8804
    12.2020  12.2020  12.9051  12.9051  15.6458  15.6458

          k = 0.5204 0.3005-0.2504 (  8374 PWs)   bands (ev):

   -14.9509 -14.9509 -14.9280 -14.9280 -14.8909 -14.8909 -14.8745 -14.8745
   -12.0318 -12.0318 -11.9788 -11.9788 -11.9462 -11.9462 -11.9023 -11.9023
   -11.8699 -11.8699 -11.8067 -11.8067  -1.7600  -1.7600  -0.1880  -0.1880
     4.9324   4.9324   5.8208   5.8208   7.1793   7.1793  11.5595  11.5595
    12.9705  12.9705  14.4652  14.4652  14.7543  14.7543

          k = 0.5204 0.1502-0.2003 (  8362 PWs)   bands (ev):

   -14.9494 -14.9494 -14.9238 -14.9238 -14.8956 -14.8956 -14.8750 -14.8750
   -12.0279 -12.0279 -11.9762 -11.9762 -11.9444 -11.9444 -11.9060 -11.9060
   -11.8691 -11.8691 -11.8133 -11.8133  -1.9098  -1.9098  -0.1917  -0.1917
     5.4414   5.4414   5.9516   5.9516   7.5657   7.5657  11.2296  11.2296
    12.8097  12.8097  13.4539  13.4539  14.3970  14.3970

          k = 0.3903 0.2253-0.1502 (  8367 PWs)   bands (ev):

   -14.9498 -14.9498 -14.9232 -14.9232 -14.8963 -14.8963 -14.8767 -14.8767
   -12.0309 -12.0309 -11.9823 -11.9823 -11.9467 -11.9467 -11.9062 -11.9062
   -11.8599 -11.8599 -11.8093 -11.8093  -2.3334  -2.3334   0.2087   0.2087
     6.0015   6.0015   6.3620   6.3620   7.5575   7.5575  11.4144  11.4144
    12.2489  12.2489  12.8490  12.8490  13.8986  13.8986

          k = 0.0000 0.0000 0.3005 (  8376 PWs)   bands (ev):

   -14.9471 -14.9471 -14.9312 -14.9312 -14.8890 -14.8890 -14.8859 -14.8859
   -12.0262 -12.0262 -11.9991 -11.9991 -11.9960 -11.9960 -11.8428 -11.8428
   -11.8367 -11.8367 -11.8290 -11.8290  -3.0450  -3.0450   0.8161   0.8161
     6.8057   6.8057   8.4519   8.4519   8.9450   8.9450   9.6833   9.6833
    11.2853  11.2853  11.6349  11.6349  14.5306  14.5306

          k = 0.0000-0.1502 0.3505 (  8356 PWs)   bands (ev):

   -14.9452 -14.9452 -14.9281 -14.9281 -14.8912 -14.8912 -14.8853 -14.8853
   -12.0209 -12.0209 -12.0015 -12.0015 -11.9747 -11.9747 -11.8650 -11.8650
   -11.8383 -11.8383 -11.8325 -11.8325  -2.7879  -2.7879   0.4545   0.4545
     6.3995   6.3995   8.1514   8.1514   8.9679   8.9679   9.9239   9.9239
    10.4173  10.4173  12.6010  12.6010  14.7370  14.7370

          k = 0.0000 0.9014 0.0000 (  8362 PWs)   bands (ev):

   -14.9418 -14.9418 -14.9286 -14.9286 -14.8893 -14.8893 -14.8855 -14.8855
   -12.0116 -12.0116 -11.9997 -11.9997 -11.9517 -11.9517 -11.8863 -11.8863
   -11.8492 -11.8492 -11.8385 -11.8385  -2.3052  -2.3052  -0.0642  -0.0642
     5.7075   5.7075   7.4655   7.4655   8.6861   8.6861   9.9383   9.9383
    11.0289  11.0289  13.5217  13.5217  15.2208  15.2208

          k = 0.0000 0.7511 0.0501 (  8389 PWs)   bands (ev):

   -14.9404 -14.9404 -14.9299 -14.9299 -14.8888 -14.8888 -14.8833 -14.8833
   -12.0100 -12.0100 -11.9893 -11.9893 -11.9409 -11.9409 -11.8971 -11.8971
   -11.8640 -11.8640 -11.8379 -11.8379  -1.7182  -1.7182  -0.6345  -0.6345
     5.4355   5.4355   6.7764   6.7764   8.0591   8.0591  10.4712  10.4712
    11.8174  11.8174  13.5390  13.5390  15.1896  15.1896

          k = 0.0000 0.6009 0.1002 (  8374 PWs)   bands (ev):

   -14.9453 -14.9453 -14.9256 -14.9256 -14.8932 -14.8932 -14.8786 -14.8786
   -12.0205 -12.0205 -11.9761 -11.9761 -11.9411 -11.9411 -11.9064 -11.9064
   -11.8714 -11.8714 -11.8233 -11.8233  -1.7603  -1.7603  -0.5074  -0.5074
     5.6695   5.6695   6.2924   6.2924   7.6453   7.6453  11.0217  11.0217
    12.4577  12.4577  13.0254  13.0254  13.9958  13.9958

          k =-0.1301-0.0751 0.4006 (  8359 PWs)   bands (ev):

   -14.9452 -14.9452 -14.9254 -14.9254 -14.8934 -14.8934 -14.8844 -14.8844
   -12.0220 -12.0220 -11.9917 -11.9917 -11.9733 -11.9733 -11.8699 -11.8699
   -11.8485 -11.8485 -11.8288 -11.8288  -2.6474  -2.6474   0.2533   0.2533
     6.5210   6.5210   7.5628   7.5628   8.5337   8.5337  10.3756  10.3756
    11.0978  11.0978  12.1532  12.1532  14.4068  14.4068

          k =-0.1301 0.9765 0.0501 (  8353 PWs)   bands (ev):

   -14.9445 -14.9445 -14.9263 -14.9263 -14.8923 -14.8923 -14.8827 -14.8827
   -12.0194 -12.0194 -11.9907 -11.9907 -11.9576 -11.9576 -11.8833 -11.8833
   -11.8555 -11.8555 -11.8296 -11.8296  -2.2923  -2.2923  -0.0518  -0.0518
     5.8396   5.8396   6.7944   6.7944   8.6729   8.6729  10.0732  10.0732
    11.9743  11.9743  13.1608  13.1608  14.5928  14.5928

          k =-0.1301 0.8262 0.1002 (  8359 PWs)   bands (ev):

   -14.9435 -14.9435 -14.9294 -14.9294 -14.8901 -14.8901 -14.8802 -14.8802
   -12.0154 -12.0154 -11.9914 -11.9914 -11.9453 -11.9453 -11.8922 -11.8922
   -11.8609 -11.8609 -11.8327 -11.8327  -1.7990  -1.7990  -0.4400  -0.4400
     5.2732   5.2732   6.0745   6.0745   8.8074   8.8074   9.8467   9.8467
    12.9125  12.9125  14.0543  14.0543  15.1539  15.1539

          k =-0.1301 0.6760 0.1502 (  8370 PWs)   bands (ev):

   -14.9462 -14.9462 -14.9276 -14.9276 -14.8922 -14.8922 -14.8766 -14.8766
   -12.0201 -12.0201 -11.9829 -11.9829 -11.9418 -11.9418 -11.8996 -11.8996
   -11.8691 -11.8691 -11.8246 -11.8246  -1.5214  -1.5214  -0.6294  -0.6294
     5.1800   5.1800   5.7512   5.7512   8.1327   8.1327  10.5355  10.5355
    13.1524  13.1524  14.1292  14.1292  14.5914  14.5915

          k = 0.7806 0.4507-0.3005 (  8377 PWs)   bands (ev):

   -14.9459 -14.9459 -14.9271 -14.9271 -14.8915 -14.8915 -14.8806 -14.8806
   -12.0231 -12.0231 -11.9853 -11.9853 -11.9567 -11.9567 -11.8854 -11.8854
   -11.8624 -11.8624 -11.8232 -11.8232  -2.0979  -2.0979  -0.1556  -0.1556
     5.5002   5.5002   6.5453   6.5453   7.7887   7.7887  11.1145  11.1145
    12.5565  12.5565  13.4153  13.4153  14.1716  14.1716

          k = 0.7806 0.3005-0.2504 (  8375 PWs)   bands (ev):

   -14.9459 -14.9459 -14.9295 -14.9295 -14.8900 -14.8900 -14.8784 -14.8784
   -12.0211 -12.0211 -11.9888 -11.9888 -11.9478 -11.9478 -11.8907 -11.8907
   -11.8639 -11.8639 -11.8247 -11.8247  -1.7706  -1.7706  -0.3690  -0.3690
     5.1021   5.1021   5.8470   5.8470   8.2494   8.2494  10.5675  10.5675
    13.2352  13.2352  14.2654  14.2654  14.6846  14.6846

          k = 0.7806 0.1502-0.2003 (  8360 PWs)   bands (ev):

   -14.9469 -14.9469 -14.9277 -14.9277 -14.8927 -14.8927 -14.8752 -14.8752
   -12.0191 -12.0191 -11.9875 -11.9875 -11.9411 -11.9411 -11.8982 -11.8982
   -11.8649 -11.8649 -11.8273 -11.8273  -1.4105  -1.4105  -0.6800  -0.6800
     5.1137   5.1137   5.3233   5.3233   8.7396   8.7396   9.9471   9.9471
    13.8282  13.8282  14.4066  14.4066  14.9774  14.9774

          k = 0.6505 0.3756-0.2003 (  8377 PWs)   bands (ev):

   -14.9461 -14.9461 -14.9304 -14.9304 -14.8887 -14.8887 -14.8783 -14.8783
   -12.0223 -12.0223 -11.9866 -11.9866 -11.9458 -11.9458 -11.8933 -11.8933
   -11.8677 -11.8677 -11.8213 -11.8213  -1.6610  -1.6610  -0.4478  -0.4478
     4.8878   4.8878   6.2236   6.2236   7.5071   7.5071  11.3134  11.3134
    12.8415  12.8415  14.0438  14.0438  14.9051  14.9051

          k = 0.0000 0.0000 0.4507 (  8355 PWs)   bands (ev):

   -14.9424 -14.9424 -14.9234 -14.9234 -14.8915 -14.8915 -14.8903 -14.8903
   -12.0156 -12.0156 -11.9856 -11.9856 -11.9787 -11.9787 -11.8622 -11.8622
   -11.8492 -11.8492 -11.8442 -11.8442  -2.6115  -2.6115   0.0325   0.0325
     7.1369   7.1369   8.0998   8.0998   9.1496   9.1496   9.5660   9.5660
    10.5865  10.5865  10.8858  10.8858  15.3781  15.3781

          k = 0.0000 1.0516 0.1002 (  8339 PWs)   bands (ev):

   -14.9418 -14.9418 -14.9238 -14.9238 -14.8917 -14.8917 -14.8886 -14.8886
   -12.0135 -12.0135 -11.9892 -11.9892 -11.9636 -11.9636 -11.8758 -11.8758
   -11.8498 -11.8498 -11.8450 -11.8450  -2.3718  -2.3718  -0.1819  -0.1819
     6.4228   6.4228   7.7159   7.7159   8.8708   8.8708   9.8563   9.8563
    10.5704  10.5704  12.1967  12.1967  15.5178  15.5178

          k = 0.0000 0.9014 0.1502 (  8351 PWs)   bands (ev):

   -14.9422 -14.9422 -14.9289 -14.9289 -14.8883 -14.8883 -14.8847 -14.8847
   -12.0139 -12.0139 -11.9924 -11.9924 -11.9508 -11.9508 -11.8859 -11.8859
   -11.8575 -11.8575 -11.8371 -11.8371  -1.9881  -1.9881  -0.3634  -0.3634
     5.4131   5.4131   6.9038   6.9038   8.1497   8.1497  10.5224  10.5224
    11.8730  11.8730  13.7792  13.7792  15.2109  15.2109

          k = 0.9107 0.5258-0.2504 (  8335 PWs)   bands (ev):

   -14.9416 -14.9416 -14.9229 -14.9229 -14.8925 -14.8925 -14.8883 -14.8883
   -12.0137 -12.0137 -11.9843 -11.9843 -11.9639 -11.9639 -11.8761 -11.8761
   -11.8576 -11.8576 -11.8419 -11.8419  -2.2828  -2.2828  -0.2966  -0.2966
     6.5439   6.5439   7.4142   7.4142   8.6215   8.6215  10.1041  10.1041
    10.9752  10.9752  11.8655  11.8655  15.4036  15.4036

          k = 0.9107 0.3756-0.2003 (  8338 PWs)   bands (ev):

   -14.9425 -14.9425 -14.9271 -14.9271 -14.8902 -14.8902 -14.8846 -14.8846
   -12.0150 -12.0150 -11.9893 -11.9893 -11.9547 -11.9547 -11.8829 -11.8829
   -11.8584 -11.8584 -11.8371 -11.8371  -2.0547  -2.0547  -0.3483  -0.3483
     5.7612   5.7612   6.5716   6.5716   8.9569   8.9569   9.6718   9.6718
    12.3544  12.3544  13.0712  13.0712  15.2974  15.2975

          k = 0.0000 0.0000-0.6009 (  8340 PWs)   bands (ev):

   -14.9402 -14.9402 -14.9193 -14.9193 -14.8930 -14.8930 -14.8928 -14.8928
   -12.0105 -12.0105 -11.9794 -11.9794 -11.9695 -11.9695 -11.8723 -11.8723
   -11.8542 -11.8542 -11.8520 -11.8520  -2.3499  -2.3499  -0.3629  -0.3629
     7.3992   7.3992   7.8064   7.8064   9.2941   9.2941   9.5893   9.5893
    10.2761  10.2761  10.5444  10.5444  16.1630  16.1630

     the Fermi energy is     9.2102 ev

!    total energy              =    -327.59862003 Ry
     Harris-Foulkes estimate   =    -327.59862003 Ry
     estimated scf accuracy    <          7.4E-09 Ry

     The total energy is the sum of the following terms:

     one-electron contribution =    -112.33777436 Ry
     hartree contribution      =      72.89231077 Ry
     xc contribution           =     -86.13598100 Ry
     ewald contribution        =    -202.01721772 Ry
     smearing contrib. (-TS)   =       0.00004228 Ry

     convergence has been achieved in   7 iterations

     Forces acting on atoms (cartesian axes, Ry/au):

     atom    1 type  1   force =     0.00000000    0.00000000   -0.00371800
     atom    2 type  1   force =    -0.00000000   -0.00000000    0.00371800

     Total force =     0.005258     Total SCF correction =     0.000097


     Computing stress (Cartesian axis) and pressure

     Message from routine stres:
     noncollinear stress + GGA not implemented

     Writing output data file Bi.save
 
     init_run     :      2.15s CPU      2.26s WALL (       1 calls)
     electrons    :     56.43s CPU     57.78s WALL (       1 calls)
     forces       :      0.76s CPU      0.76s WALL (       1 calls)

     Called by init_run:
     wfcinit      :      2.07s CPU      2.12s WALL (       1 calls)
     potinit      :      0.03s CPU      0.04s WALL (       1 calls)

     Called by electrons:
     c_bands      :     48.31s CPU     49.45s WALL (       8 calls)
     sum_band     :      8.02s CPU      8.20s WALL (       8 calls)
     v_of_rho     :      0.04s CPU      0.05s WALL (       8 calls)
     mix_rho      :      0.02s CPU      0.04s WALL (       8 calls)

     Called by c_bands:
     init_us_2    :      0.30s CPU      0.28s WALL (    1170 calls)
     cegterg      :     44.56s CPU     45.45s WALL (     520 calls)

     Called by sum_band:

     Called by *egterg:
     h_psi        :     38.35s CPU     39.34s WALL (    1773 calls)
     g_psi        :      0.15s CPU      0.16s WALL (    1188 calls)
     cdiaghg      :      3.72s CPU      3.72s WALL (    1643 calls)

     Called by h_psi:
     h_psi:pot    :     38.13s CPU     39.05s WALL (    1773 calls)
     h_psi:calbec :      0.91s CPU      1.02s WALL (    1773 calls)
     vloc_psi     :     36.00s CPU     36.86s WALL (    1773 calls)
     add_vuspsi   :      1.20s CPU      1.16s WALL (    1773 calls)

     General routines
     calbec       :      1.07s CPU      1.19s WALL (    2033 calls)
     fft          :      0.04s CPU      0.06s WALL (     148 calls)
     fftw         :     39.64s CPU     40.63s WALL (  236580 calls)
 
     Parallel routines
     fft_scatt_xy :      3.14s CPU      3.18s WALL (  236728 calls)
     fft_scatt_yz :     15.59s CPU     15.95s WALL (  236728 calls)
 
     PWSCF        :  1m 2.75s CPU     1m 5.65s WALL

 
   This run was terminated on:  17:39:27  23Mar2020            

=------------------------------------------------------------------------------=
   JOB DONE.
=------------------------------------------------------------------------------=
