mpijob CMD    : mpirun -f /tmp/mpiexec.params.k014709.31408
mpijob PARAMS : -d /home/k0147/k014709/research/dft/get_rep/program/example/Si_nonsoc
        r1i0n18 24 omplace -nt 1
        "/home/k0147/k014709/research/dft/qe-6.2/bin/bands.x"

SGI MPT Placement option
--------------------------
omplace -nt 1

Node   MPI
------------
r1i0n18 24


     Program BANDS v.6.2 (svn rev. 13949:13950) starts on 23Mar2020 at 18:41:13 

     This program is part of the open-source Quantum ESPRESSO suite
     for quantum simulation of materials; please cite
         "P. Giannozzi et al., J. Phys.:Condens. Matter 21 395502 (2009);
         "P. Giannozzi et al., J. Phys.:Condens. Matter 29 465901 (2017);
          URL http://www.quantum-espresso.org", 
     in publications or presentations arising from this work. More details at
     http://www.quantum-espresso.org/quote

     Parallel version (MPI), running on    24 processors

     MPI processes distributed on     1 nodes
     R & G space division:  proc/nbgrp/npool/nimage =      24

     Reading data from directory:
     /work/k0147/k014709/band/Si_ns/Si_ns.save

     IMPORTANT: XC functional enforced from input :
     Exchange-correlation      = PBE ( 1  4  3  4 0 0)
     Any further DFT definition will be discarded
     Please, verify this is what you really want

     Message from routine readpp:
     file /work/k0147/k014709/band/Si_ns/Si_ns.save/Si_ONCV_PBE_fr.upf not found
 
     Parallelization info
     --------------------
     sticks:   dense  smooth     PW     G-vecs:    dense   smooth      PW
     Min          61      61     17                 1553     1553     238
     Max          62      62     18                 1556     1556     242
     Sum        1483    1483    421                37309    37309    5769
 
     high-symmetry point:  0.0000 0.0000 0.0000   x coordinate   0.0000
     high-symmetry point:  0.0000 0.7071 0.0000   x coordinate   0.7071
     high-symmetry point:  0.1768 0.7071 0.1768   x coordinate   0.9571
     high-symmetry point:  0.5303 0.5303 0.0000   x coordinate   0.9571
     high-symmetry point:  0.0000 0.0000 0.0000   x coordinate   1.7071
     high-symmetry point:  0.3536 0.3536 0.3536   x coordinate   2.3195
     high-symmetry point:  0.3536 0.7071 0.0000   x coordinate   2.8195
     high-symmetry point:  0.0000 0.7071 0.0000   x coordinate   3.1730

     Plottable bands (eV) written to file Si_ns.band.gnu
     Bands written to file Si_ns.band

 **************************************************************************

                    xk=(   0.00000,   0.00000,   0.00000  )

     point group O_h (m-3m) 
     there are 10 classes
     the character table:

       E     8C3   3C2   6C4   6C2'  i     8S6   3s_h  6S4   6s_d 
A_1g   1.00  1.00  1.00  1.00  1.00  1.00  1.00  1.00  1.00  1.00
A_2g   1.00  1.00  1.00 -1.00 -1.00  1.00  1.00  1.00 -1.00 -1.00
E_g    2.00 -1.00  2.00  0.00  0.00  2.00 -1.00  2.00  0.00  0.00
T_1g   3.00  0.00 -1.00  1.00 -1.00  3.00  0.00 -1.00  1.00 -1.00
T_2g   3.00  0.00 -1.00 -1.00  1.00  3.00  0.00 -1.00 -1.00  1.00
A_1u   1.00  1.00  1.00  1.00  1.00 -1.00 -1.00 -1.00 -1.00 -1.00
A_2u   1.00  1.00  1.00 -1.00 -1.00 -1.00 -1.00 -1.00  1.00  1.00
E_u    2.00 -1.00  2.00  0.00  0.00 -2.00  1.00 -2.00  0.00  0.00
T_1u   3.00  0.00 -1.00  1.00 -1.00 -3.00  0.00  1.00 -1.00  1.00
T_2u   3.00  0.00 -1.00 -1.00  1.00 -3.00  0.00  1.00  1.00 -1.00

     the symmetry operations in each class and the name of the first element:

     E        1
                                                                 
     8C3     17   19   20   18   24   21   22   23
                                                                 
     3C2      2    4    3
                                                                 
     6C4      7    8   15   16   12   11
                                                                 
     6C2'     5    6   14   13   10    9
                                                                 
     i       25
                                                                 
     8S6     41   43   44   42   48   45   46   47
                                                                 
     3s_h    26   28   27
                                                                 
     6S4     31   32   39   40   36   35
                                                                 
     6s_d    29   30   38   37   34   33
                                                                 

     Band symmetry, O_h (m-3m)  point group:

     e(  1 -  1) =     -5.80815  eV     1   --> A_1g G_1   G_1+
     e(  2 -  4) =      6.00999  eV     3   --> T_2g G_25' G_5+
     e(  5 -  7) =      8.55651  eV     3   --> T_1u G_15  G_4-
     e(  8 -  8) =      9.10793  eV     1   --> A_2u G_2'  G_2-

 **************************************************************************

 **************************************************************************

                    xk=(   0.00000,   0.01179,   0.00000  )

     point group C_4v (4mm) 
     there are  5 classes
     the character table:

       E     2C4   C2    2s_v  2s_d 
A_1    1.00  1.00  1.00  1.00  1.00
A_2    1.00  1.00  1.00 -1.00 -1.00
B_1    1.00 -1.00  1.00  1.00 -1.00
B_2    1.00 -1.00  1.00 -1.00  1.00
E      2.00  0.00 -2.00  0.00  0.00

     the symmetry operations in each class and the name of the first element:

     E        1
                                                                 
     2C4      3    4
                                                                 
     C2       2
                                                                 
     2s_v     5    6
                                                                 
     2s_d     7    8
                                                                 

     Band symmetry, C_4v (4mm)  point group:

     e(  1 -  1) =     -5.80696  eV     1   --> A_1  G_1 D_1   
     e(  2 -  2) =      6.00114  eV     1   --> B_2  G_4 D_2'  
     e(  3 -  4) =      6.00480  eV     2   --> E    G_5 D_5   
     e(  5 -  5) =      8.55353  eV     1   --> A_1  G_1 D_1   
     e(  6 -  7) =      8.56317  eV     2   --> E    G_5 D_5   
     e(  8 -  8) =      9.11662  eV     1   --> B_2  G_4 D_2'  

 **************************************************************************

 **************************************************************************

                    xk=(   0.00000,   0.02357,   0.00000  )

     Band symmetry, C_4v (4mm)  point group:

     e(  1 -  1) =     -5.80338  eV     1   --> A_1  G_1 D_1   
     e(  2 -  2) =      5.97490  eV     1   --> B_2  G_4 D_2'  
     e(  3 -  4) =      5.98939  eV     2   --> E    G_5 D_5   
     e(  5 -  5) =      8.54465  eV     1   --> A_1  G_1 D_1   
     e(  6 -  7) =      8.58299  eV     2   --> E    G_5 D_5   
     e(  8 -  8) =      9.14234  eV     1   --> B_2  G_4 D_2'  

 **************************************************************************

 **************************************************************************

                    xk=(   0.00000,   0.03536,   0.00000  )

     Band symmetry, C_4v (4mm)  point group:

     e(  1 -  1) =     -5.79741  eV     1   --> A_1  G_1 D_1   
     e(  2 -  2) =      5.93214  eV     1   --> B_2  G_4 D_2'  
     e(  3 -  4) =      5.96426  eV     2   --> E    G_5 D_5   
     e(  5 -  5) =      8.52998  eV     1   --> A_1  G_1 D_1   
     e(  6 -  7) =      8.61548  eV     2   --> E    G_5 D_5   
     e(  8 -  8) =      9.18412  eV     1   --> B_2  G_4 D_2'  

 **************************************************************************

 **************************************************************************

                    xk=(   0.00000,   0.04714,   0.00000  )

     Band symmetry, C_4v (4mm)  point group:

     e(  1 -  1) =     -5.78905  eV     1   --> A_1  G_1 D_1   
     e(  2 -  2) =      5.87419  eV     1   --> B_2  G_4 D_2'  
     e(  3 -  4) =      5.93014  eV     2   --> E    G_5 D_5   
     e(  5 -  5) =      8.50971  eV     1   --> A_1  G_1 D_1   
     e(  6 -  7) =      8.65990  eV     2   --> E    G_5 D_5   
     e(  8 -  8) =      9.24045  eV     1   --> B_2  G_4 D_2'  

 **************************************************************************

 **************************************************************************

                    xk=(   0.00000,   0.05893,   0.00000  )

     Band symmetry, C_4v (4mm)  point group:

     e(  1 -  1) =     -5.77832  eV     1   --> A_1  G_1 D_1   
     e(  2 -  2) =      5.80263  eV     1   --> B_2  G_4 D_2'  
     e(  3 -  4) =      5.88793  eV     2   --> E    G_5 D_5   
     e(  5 -  5) =      8.48412  eV     1   --> A_1  G_1 D_1   
     e(  6 -  7) =      8.71534  eV     2   --> E    G_5 D_5   
     e(  8 -  8) =      9.30950  eV     1   --> B_2  G_4 D_2'  

 **************************************************************************

 **************************************************************************

                    xk=(   0.00000,   0.07071,   0.00000  )

     Band symmetry, C_4v (4mm)  point group:

     e(  1 -  1) =     -5.76519  eV     1   --> A_1  G_1 D_1   
     e(  2 -  2) =      5.71912  eV     1   --> B_2  G_4 D_2'  
     e(  3 -  4) =      5.83864  eV     2   --> E    G_5 D_5   
     e(  5 -  5) =      8.45351  eV     1   --> A_1  G_1 D_1   
     e(  6 -  7) =      8.78078  eV     2   --> E    G_5 D_5   
     e(  8 -  8) =      9.38922  eV     1   --> B_2  G_4 D_2'  

 **************************************************************************

 **************************************************************************

                    xk=(   0.00000,   0.08250,   0.00000  )

     Band symmetry, C_4v (4mm)  point group:

     e(  1 -  1) =     -5.74969  eV     1   --> A_1  G_1 D_1   
     e(  2 -  2) =      5.62531  eV     1   --> B_2  G_4 D_2'  
     e(  3 -  4) =      5.78327  eV     2   --> E    G_5 D_5   
     e(  5 -  5) =      8.41825  eV     1   --> A_1  G_1 D_1   
     e(  6 -  7) =      8.85522  eV     2   --> E    G_5 D_5   
     e(  8 -  8) =      9.47749  eV     1   --> B_2  G_4 D_2'  

 **************************************************************************

 **************************************************************************

                    xk=(   0.00000,   0.09428,   0.00000  )

     Band symmetry, C_4v (4mm)  point group:

     e(  1 -  1) =     -5.73181  eV     1   --> A_1  G_1 D_1   
     e(  2 -  2) =      5.52273  eV     1   --> B_2  G_4 D_2'  
     e(  3 -  4) =      5.72281  eV     2   --> E    G_5 D_5   
     e(  5 -  5) =      8.37872  eV     1   --> A_1  G_1 D_1   
     e(  6 -  7) =      8.93765  eV     2   --> E    G_5 D_5   
     e(  8 -  8) =      9.57212  eV     1   --> B_2  G_4 D_2'  

 **************************************************************************

 **************************************************************************

                    xk=(   0.00000,   0.10607,   0.00000  )

     Band symmetry, C_4v (4mm)  point group:

     e(  1 -  1) =     -5.71156  eV     1   --> A_1  G_1 D_1   
     e(  2 -  2) =      5.41271  eV     1   --> B_2  G_4 D_2'  
     e(  3 -  4) =      5.65815  eV     2   --> E    G_5 D_5   
     e(  5 -  5) =      8.33535  eV     1   --> A_1  G_1 D_1   
     e(  6 -  7) =      9.02718  eV     2   --> E    G_5 D_5   
     e(  8 -  8) =      9.67090  eV     1   --> B_2  G_4 D_2'  

 **************************************************************************

 **************************************************************************

                    xk=(   0.00000,   0.11785,   0.00000  )

     Band symmetry, C_4v (4mm)  point group:

     e(  1 -  1) =     -5.68893  eV     1   --> A_1  G_1 D_1   
     e(  2 -  2) =      5.29645  eV     1   --> B_2  G_4 D_2'  
     e(  3 -  4) =      5.59010  eV     2   --> E    G_5 D_5   
     e(  5 -  5) =      8.28855  eV     1   --> A_1  G_1 D_1   
     e(  6 -  7) =      9.12298  eV     2   --> E    G_5 D_5   
     e(  8 -  8) =      9.77150  eV     1   --> B_2  G_4 D_2'  

 **************************************************************************

 **************************************************************************

                    xk=(   0.00000,   0.12964,   0.00000  )

     Band symmetry, C_4v (4mm)  point group:

     e(  1 -  1) =     -5.66393  eV     1   --> A_1  G_1 D_1   
     e(  2 -  2) =      5.17495  eV     1   --> B_2  G_4 D_2'  
     e(  3 -  4) =      5.51938  eV     2   --> E    G_5 D_5   
     e(  5 -  5) =      8.23873  eV     1   --> A_1  G_1 D_1   
     e(  6 -  7) =      9.22432  eV     2   --> E    G_5 D_5   
     e(  8 -  8) =      9.87145  eV     1   --> B_2  G_4 D_2'  

 **************************************************************************

 **************************************************************************

                    xk=(   0.00000,   0.14142,   0.00000  )

     Band symmetry, C_4v (4mm)  point group:

     e(  1 -  1) =     -5.63657  eV     1   --> A_1  G_1 D_1   
     e(  2 -  2) =      5.04905  eV     1   --> B_2  G_4 D_2'  
     e(  3 -  4) =      5.44662  eV     2   --> E    G_5 D_5   
     e(  5 -  5) =      8.18632  eV     1   --> A_1  G_1 D_1   
     e(  6 -  7) =      9.33055  eV     2   --> E    G_5 D_5   
     e(  8 -  8) =      9.96796  eV     1   --> B_2  G_4 D_2'  

 **************************************************************************

 **************************************************************************

                    xk=(   0.00000,   0.15321,   0.00000  )

     Band symmetry, C_4v (4mm)  point group:

     e(  1 -  1) =     -5.60684  eV     1   --> A_1  G_1 D_1   
     e(  2 -  2) =      4.91947  eV     1   --> B_2  G_4 D_2'  
     e(  3 -  4) =      5.37235  eV     2   --> E    G_5 D_5   
     e(  5 -  5) =      8.13171  eV     1   --> A_1  G_1 D_1   
     e(  6 -  7) =      9.44114  eV     2   --> E    G_5 D_5   
     e(  8 -  8) =     10.05785  eV     1   --> B_2  G_4 D_2'  

 **************************************************************************

 **************************************************************************

                    xk=(   0.00000,   0.16499,   0.00000  )

     Band symmetry, C_4v (4mm)  point group:

     e(  1 -  1) =     -5.57476  eV     1   --> A_1  G_1 D_1   
     e(  2 -  2) =      4.78679  eV     1   --> B_2  G_4 D_2'  
     e(  3 -  4) =      5.29704  eV     2   --> E    G_5 D_5   
     e(  5 -  5) =      8.07529  eV     1   --> A_1  G_1 D_1   
     e(  6 -  7) =      9.55558  eV     2   --> E    G_5 D_5   
     e(  8 -  8) =     10.13751  eV     1   --> B_2  G_4 D_2'  

 **************************************************************************

 **************************************************************************

                    xk=(   0.00000,   0.17678,   0.00000  )

     Band symmetry, C_4v (4mm)  point group:

     e(  1 -  1) =     -5.54033  eV     1   --> A_1  G_1 D_1   
     e(  2 -  2) =      4.65152  eV     1   --> B_2  G_4 D_2'  
     e(  3 -  4) =      5.22109  eV     2   --> E    G_5 D_5   
     e(  5 -  5) =      8.01741  eV     1   --> A_1  G_1 D_1   
     e(  6 -  7) =      9.67347  eV     2   --> E    G_5 D_5   
     e(  8 -  8) =     10.20291  eV     1   --> B_2  G_4 D_2'  

 **************************************************************************

 **************************************************************************

                    xk=(   0.00000,   0.18856,   0.00000  )

     Band symmetry, C_4v (4mm)  point group:

     e(  1 -  1) =     -5.50355  eV     1   --> A_1  G_1 D_1   
     e(  2 -  2) =      4.51406  eV     1   --> B_2  G_4 D_2'  
     e(  3 -  4) =      5.14484  eV     2   --> E    G_5 D_5   
     e(  5 -  5) =      7.95841  eV     1   --> A_1  G_1 D_1   
     e(  6 -  7) =      9.79444  eV     2   --> E    G_5 D_5   
     e(  8 -  8) =     10.24993  eV     1   --> B_2  G_4 D_2'  

 **************************************************************************

 **************************************************************************

                    xk=(   0.00000,   0.20035,   0.00000  )

     Band symmetry, C_4v (4mm)  point group:

     e(  1 -  1) =     -5.46444  eV     1   --> A_1  G_1 D_1   
     e(  2 -  2) =      4.37476  eV     1   --> B_2  G_4 D_2'  
     e(  3 -  4) =      5.06858  eV     2   --> E    G_5 D_5   
     e(  5 -  5) =      7.89861  eV     1   --> A_1  G_1 D_1   
     e(  6 -  7) =      9.91819  eV     2   --> E    G_5 D_5   
     e(  8 -  8) =     10.27497  eV     1   --> B_2  G_4 D_2'  

 **************************************************************************

 **************************************************************************

                    xk=(   0.00000,   0.21213,   0.00000  )

     Band symmetry, C_4v (4mm)  point group:

     e(  1 -  1) =     -5.42299  eV     1   --> A_1  G_1 D_1   
     e(  2 -  2) =      4.23390  eV     1   --> B_2  G_4 D_2'  
     e(  3 -  4) =      4.99258  eV     2   --> E    G_5 D_5   
     e(  5 -  5) =      7.83832  eV     1   --> A_1  G_1 D_1   
     e(  6 -  7) =     10.04445  eV     2   --> E    G_5 D_5   
     e(  8 -  8) =     10.27573  eV     1   --> B_2  G_4 D_2'  

 **************************************************************************

 **************************************************************************

                    xk=(   0.00000,   0.22392,   0.00000  )

     Band symmetry, C_4v (4mm)  point group:

     e(  1 -  1) =     -5.37921  eV     1   --> A_1  G_1 D_1   
     e(  2 -  2) =      4.09173  eV     1   --> B_2  G_4 D_2'  
     e(  3 -  4) =      4.91704  eV     2   --> E    G_5 D_5   
     e(  5 -  5) =      7.77779  eV     1   --> A_1  G_1 D_1   
     e(  6 -  7) =     10.17297  eV     2   --> E    G_5 D_5   
     e(  8 -  8) =     10.25185  eV     1   --> B_2  G_4 D_2'  

 **************************************************************************

 **************************************************************************

                    xk=(   0.00000,   0.23570,   0.00000  )

     Band symmetry, C_4v (4mm)  point group:

     e(  1 -  1) =     -5.33312  eV     1   --> A_1  G_1 D_1   
     e(  2 -  2) =      3.94845  eV     1   --> B_2  G_4 D_2'  
     e(  3 -  4) =      4.84216  eV     2   --> E    G_5 D_5   
     e(  5 -  5) =      7.71728  eV     1   --> A_1  G_1 D_1   
     e(  6 -  6) =     10.20498  eV     1   --> B_2  G_4 D_2'  
     e(  7 -  8) =     10.30355  eV     2   --> E    G_5 D_5   

 **************************************************************************

 **************************************************************************

                    xk=(   0.00000,   0.24749,   0.00000  )

     Band symmetry, C_4v (4mm)  point group:

     e(  1 -  1) =     -5.28471  eV     1   --> A_1  G_1 D_1   
     e(  2 -  2) =      3.80424  eV     1   --> B_2  G_4 D_2'  
     e(  3 -  4) =      4.76811  eV     2   --> E    G_5 D_5   
     e(  5 -  5) =      7.65702  eV     1   --> A_1  G_1 D_1   
     e(  6 -  6) =     10.13816  eV     1   --> B_2  G_4 D_2'  
     e(  7 -  8) =     10.43601  eV     2   --> E    G_5 D_5   

 **************************************************************************

 **************************************************************************

                    xk=(   0.00000,   0.25927,   0.00000  )

     Band symmetry, C_4v (4mm)  point group:

     e(  1 -  1) =     -5.23400  eV     1   --> A_1  G_1 D_1   
     e(  2 -  2) =      3.65924  eV     1   --> B_2  G_4 D_2'  
     e(  3 -  4) =      4.69502  eV     2   --> E    G_5 D_5   
     e(  5 -  5) =      7.59723  eV     1   --> A_1  G_1 D_1   
     e(  6 -  6) =     10.05508  eV     1   --> B_2  G_4 D_2'  
     e(  7 -  8) =     10.57019  eV     2   --> E    G_5 D_5   

 **************************************************************************

 **************************************************************************

                    xk=(   0.00000,   0.27106,   0.00000  )

     Band symmetry, C_4v (4mm)  point group:

     e(  1 -  1) =     -5.18100  eV     1   --> A_1  G_1 D_1   
     e(  2 -  2) =      3.51358  eV     1   --> B_2  G_4 D_2'  
     e(  3 -  4) =      4.62302  eV     2   --> E    G_5 D_5   
     e(  5 -  5) =      7.53810  eV     1   --> A_1  G_1 D_1   
     e(  6 -  6) =      9.95939  eV     1   --> B_2  G_4 D_2'  
     e(  7 -  8) =     10.70595  eV     2   --> E    G_5 D_5   

 **************************************************************************

 **************************************************************************

                    xk=(   0.00000,   0.28284,   0.00000  )

     Band symmetry, C_4v (4mm)  point group:

     e(  1 -  1) =     -5.12571  eV     1   --> A_1  G_1 D_1   
     e(  2 -  2) =      3.36738  eV     1   --> B_2  G_4 D_2'  
     e(  3 -  4) =      4.55223  eV     2   --> E    G_5 D_5   
     e(  5 -  5) =      7.47981  eV     1   --> A_1  G_1 D_1   
     e(  6 -  6) =      9.85429  eV     1   --> B_2  G_4 D_2'  
     e(  7 -  8) =     10.84316  eV     2   --> E    G_5 D_5   

 **************************************************************************

 **************************************************************************

                    xk=(   0.00000,   0.29463,   0.00000  )

     Band symmetry, C_4v (4mm)  point group:

     e(  1 -  1) =     -5.06814  eV     1   --> A_1  G_1 D_1   
     e(  2 -  2) =      3.22072  eV     1   --> B_2  G_4 D_2'  
     e(  3 -  4) =      4.48274  eV     2   --> E    G_5 D_5   
     e(  5 -  5) =      7.42253  eV     1   --> A_1  G_1 D_1   
     e(  6 -  6) =      9.74242  eV     1   --> B_2  G_4 D_2'  
     e(  7 -  8) =     10.98172  eV     2   --> E    G_5 D_5   

 **************************************************************************

 **************************************************************************

                    xk=(   0.00000,   0.30641,   0.00000  )

     Band symmetry, C_4v (4mm)  point group:

     e(  1 -  1) =     -5.00831  eV     1   --> A_1  G_1 D_1   
     e(  2 -  2) =      3.07369  eV     1   --> B_2  G_4 D_2'  
     e(  3 -  4) =      4.41464  eV     2   --> E    G_5 D_5   
     e(  5 -  5) =      7.36640  eV     1   --> A_1  G_1 D_1   
     e(  6 -  6) =      9.62591  eV     1   --> B_2  G_4 D_2'  
     e(  7 -  8) =     11.12151  eV     2   --> E    G_5 D_5   

 **************************************************************************

 **************************************************************************

                    xk=(   0.00000,   0.31820,   0.00000  )

     Band symmetry, C_4v (4mm)  point group:

     e(  1 -  1) =     -4.94623  eV     1   --> A_1  G_1 D_1   
     e(  2 -  2) =      2.92637  eV     1   --> B_2  G_4 D_2'  
     e(  3 -  4) =      4.34800  eV     2   --> E    G_5 D_5   
     e(  5 -  5) =      7.31157  eV     1   --> A_1  G_1 D_1   
     e(  6 -  6) =      9.50642  eV     1   --> B_2  G_4 D_2'  
     e(  7 -  8) =     11.26246  eV     2   --> E    G_5 D_5   

 **************************************************************************

 **************************************************************************

                    xk=(   0.00000,   0.32998,   0.00000  )

     Band symmetry, C_4v (4mm)  point group:

     e(  1 -  1) =     -4.88190  eV     1   --> A_1  G_1 D_1   
     e(  2 -  2) =      2.77884  eV     1   --> B_2  G_4 D_2'  
     e(  3 -  4) =      4.28289  eV     2   --> E    G_5 D_5   
     e(  5 -  5) =      7.25817  eV     1   --> A_1  G_1 D_1   
     e(  6 -  6) =      9.38527  eV     1   --> B_2  G_4 D_2'  
     e(  7 -  8) =     11.40448  eV     2   --> E    G_5 D_5   

 **************************************************************************

 **************************************************************************

                    xk=(   0.00000,   0.34177,   0.00000  )

     Band symmetry, C_4v (4mm)  point group:

     e(  1 -  1) =     -4.81534  eV     1   --> A_1  G_1 D_1   
     e(  2 -  2) =      2.63115  eV     1   --> B_2  G_4 D_2'  
     e(  3 -  4) =      4.21938  eV     2   --> E    G_5 D_5   
     e(  5 -  5) =      7.20631  eV     1   --> A_1  G_1 D_1   
     e(  6 -  6) =      9.26347  eV     1   --> B_2  G_4 D_2'  
     e(  7 -  8) =     11.54751  eV     2   --> E    G_5 D_5   

 **************************************************************************

 **************************************************************************

                    xk=(   0.00000,   0.35355,   0.00000  )

     Band symmetry, C_4v (4mm)  point group:

     e(  1 -  1) =     -4.74656  eV     1   --> A_1  G_1 D_1   
     e(  2 -  2) =      2.48336  eV     1   --> B_2  G_4 D_2'  
     e(  3 -  4) =      4.15752  eV     2   --> E    G_5 D_5   
     e(  5 -  5) =      7.15611  eV     1   --> A_1  G_1 D_1   
     e(  6 -  6) =      9.14185  eV     1   --> B_2  G_4 D_2'  
     e(  7 -  8) =     11.69149  eV     2   --> E    G_5 D_5   

 **************************************************************************

 **************************************************************************

                    xk=(   0.00000,   0.36534,   0.00000  )

     Band symmetry, C_4v (4mm)  point group:

     e(  1 -  1) =     -4.67558  eV     1   --> A_1  G_1 D_1   
     e(  2 -  2) =      2.33553  eV     1   --> B_2  G_4 D_2'  
     e(  3 -  4) =      4.09737  eV     2   --> E    G_5 D_5   
     e(  5 -  5) =      7.10766  eV     1   --> A_1  G_1 D_1   
     e(  6 -  6) =      9.02103  eV     1   --> B_2  G_4 D_2'  
     e(  7 -  8) =     11.83635  eV     2   --> E    G_5 D_5   

 **************************************************************************

 **************************************************************************

                    xk=(   0.00000,   0.37712,   0.00000  )

     Band symmetry, C_4v (4mm)  point group:

     e(  1 -  1) =     -4.60240  eV     1   --> A_1  G_1 D_1   
     e(  2 -  2) =      2.18771  eV     1   --> B_2  G_4 D_2'  
     e(  3 -  4) =      4.03895  eV     2   --> E    G_5 D_5   
     e(  5 -  5) =      7.06106  eV     1   --> A_1  G_1 D_1   
     e(  6 -  6) =      8.90153  eV     1   --> B_2  G_4 D_2'  
     e(  7 -  8) =     11.98205  eV     2   --> E    G_5 D_5   

 **************************************************************************

 **************************************************************************

                    xk=(   0.00000,   0.38891,   0.00000  )

     Band symmetry, C_4v (4mm)  point group:

     e(  1 -  1) =     -4.52705  eV     1   --> A_1  G_1 D_1   
     e(  2 -  2) =      2.03995  eV     1   --> B_2  G_4 D_2'  
     e(  3 -  4) =      3.98233  eV     2   --> E    G_5 D_5   
     e(  5 -  5) =      7.01640  eV     1   --> A_1  G_1 D_1   
     e(  6 -  6) =      8.78377  eV     1   --> B_2  G_4 D_2'  
     e(  7 -  8) =     12.12854  eV     2   --> E    G_5 D_5   

 **************************************************************************

 **************************************************************************

                    xk=(   0.00000,   0.40069,   0.00000  )

     Band symmetry, C_4v (4mm)  point group:

     e(  1 -  1) =     -4.44953  eV     1   --> A_1  G_1 D_1   
     e(  2 -  2) =      1.89231  eV     1   --> B_2  G_4 D_2'  
     e(  3 -  4) =      3.92752  eV     2   --> E    G_5 D_5   
     e(  5 -  5) =      6.97376  eV     1   --> A_1  G_1 D_1   
     e(  6 -  6) =      8.66807  eV     1   --> B_2  G_4 D_2'  
     e(  7 -  8) =     12.27579  eV     2   --> E    G_5 D_5   

 **************************************************************************

 **************************************************************************

                    xk=(   0.00000,   0.41248,   0.00000  )

     Band symmetry, C_4v (4mm)  point group:

     e(  1 -  1) =     -4.36987  eV     1   --> A_1  G_1 D_1   
     e(  2 -  2) =      1.74484  eV     1   --> B_2  G_4 D_2'  
     e(  3 -  4) =      3.87458  eV     2   --> E    G_5 D_5   
     e(  5 -  5) =      6.93321  eV     1   --> A_1  G_1 D_1   
     e(  6 -  6) =      8.55473  eV     1   --> B_2  G_4 D_2'  
     e(  7 -  8) =     12.42375  eV     2   --> E    G_5 D_5   

 **************************************************************************

 **************************************************************************

                    xk=(   0.00000,   0.42426,   0.00000  )

     Band symmetry, C_4v (4mm)  point group:

     e(  1 -  1) =     -4.28807  eV     1   --> A_1  G_1 D_1   
     e(  2 -  2) =      1.59758  eV     1   --> B_2  G_4 D_2'  
     e(  3 -  4) =      3.82352  eV     2   --> E    G_5 D_5   
     e(  5 -  5) =      6.89484  eV     1   --> A_1  G_1 D_1   
     e(  6 -  6) =      8.44395  eV     1   --> B_2  G_4 D_2'  
     e(  7 -  8) =     12.57240  eV     2   --> E    G_5 D_5   

 **************************************************************************

 **************************************************************************

                    xk=(   0.00000,   0.43605,   0.00000  )

     Band symmetry, C_4v (4mm)  point group:

     e(  1 -  1) =     -4.20416  eV     1   --> A_1  G_1 D_1   
     e(  2 -  2) =      1.45058  eV     1   --> B_2  G_4 D_2'  
     e(  3 -  4) =      3.77437  eV     2   --> E    G_5 D_5   
     e(  5 -  5) =      6.85869  eV     1   --> A_1  G_1 D_1   
     e(  6 -  6) =      8.33593  eV     1   --> B_2  G_4 D_2'  
     e(  7 -  8) =     12.72171  eV     2   --> E    G_5 D_5   

 **************************************************************************

 **************************************************************************

                    xk=(   0.00000,   0.44783,   0.00000  )

     Band symmetry, C_4v (4mm)  point group:

     e(  1 -  1) =     -4.11816  eV     1   --> A_1  G_1 D_1   
     e(  2 -  2) =      1.30389  eV     1   --> B_2  G_4 D_2'  
     e(  3 -  4) =      3.72717  eV     2   --> E    G_5 D_5   
     e(  5 -  5) =      6.82485  eV     1   --> A_1  G_1 D_1   
     e(  6 -  6) =      8.23081  eV     1   --> B_2  G_4 D_2'  
     e(  7 -  8) =     12.87164  eV     2   --> E    G_5 D_5   

 **************************************************************************

 **************************************************************************

                    xk=(   0.00000,   0.45962,   0.00000  )

     Band symmetry, C_4v (4mm)  point group:

     e(  1 -  1) =     -4.03008  eV     1   --> A_1  G_1 D_1   
     e(  2 -  2) =      1.15757  eV     1   --> B_2  G_4 D_2'  
     e(  3 -  4) =      3.68193  eV     2   --> E    G_5 D_5   
     e(  5 -  5) =      6.79336  eV     1   --> A_1  G_1 D_1   
     e(  6 -  6) =      8.12872  eV     1   --> B_2  G_4 D_2'  
     e(  7 -  8) =     13.02217  eV     2   --> E    G_5 D_5   

 **************************************************************************

 **************************************************************************

                    xk=(   0.00000,   0.47140,   0.00000  )

     Band symmetry, C_4v (4mm)  point group:

     e(  1 -  1) =     -3.93994  eV     1   --> A_1  G_1 D_1   
     e(  2 -  2) =      1.01165  eV     1   --> B_2  G_4 D_2'  
     e(  3 -  4) =      3.63868  eV     2   --> E    G_5 D_5   
     e(  5 -  5) =      6.76429  eV     1   --> A_1  G_1 D_1   
     e(  6 -  6) =      8.02976  eV     1   --> B_2  G_4 D_2'  
     e(  7 -  8) =     13.17328  eV     2   --> E    G_5 D_5   

 **************************************************************************

 **************************************************************************

                    xk=(   0.00000,   0.48319,   0.00000  )

     Band symmetry, C_4v (4mm)  point group:

     e(  1 -  1) =     -3.84776  eV     1   --> A_1  G_1 D_1   
     e(  2 -  2) =      0.86620  eV     1   --> B_2  G_4 D_2'  
     e(  3 -  4) =      3.59743  eV     2   --> E    G_5 D_5   
     e(  5 -  5) =      6.73768  eV     1   --> A_1  G_1 D_1   
     e(  6 -  6) =      7.93401  eV     1   --> B_2  G_4 D_2'  
     e(  7 -  8) =     13.32493  eV     2   --> E    G_5 D_5   

 **************************************************************************

 **************************************************************************

                    xk=(   0.00000,   0.49497,   0.00000  )

     Band symmetry, C_4v (4mm)  point group:

     e(  1 -  1) =     -3.75357  eV     1   --> A_1  G_1 D_1   
     e(  2 -  2) =      0.72126  eV     1   --> B_2  G_4 D_2'  
     e(  3 -  4) =      3.55820  eV     2   --> E    G_5 D_5   
     e(  5 -  5) =      6.71360  eV     1   --> A_1  G_1 D_1   
     e(  6 -  6) =      7.84154  eV     1   --> B_2  G_4 D_2'  
     e(  7 -  8) =     13.47709  eV     2   --> E    G_5 D_5   

 **************************************************************************

 **************************************************************************

                    xk=(   0.00000,   0.50676,   0.00000  )

     Band symmetry, C_4v (4mm)  point group:

     e(  1 -  1) =     -3.65738  eV     1   --> A_1  G_1 D_1   
     e(  2 -  2) =      0.57688  eV     1   --> B_2  G_4 D_2'  
     e(  3 -  4) =      3.52101  eV     2   --> E    G_5 D_5   
     e(  5 -  5) =      6.69208  eV     1   --> A_1  G_1 D_1   
     e(  6 -  6) =      7.75241  eV     1   --> B_2  G_4 D_2'  
     e(  7 -  8) =     13.62973  eV     2   --> E    G_5 D_5   

 **************************************************************************

 **************************************************************************

                    xk=(   0.00000,   0.51854,   0.00000  )

     Band symmetry, C_4v (4mm)  point group:

     e(  1 -  1) =     -3.55922  eV     1   --> A_1  G_1 D_1   
     e(  2 -  2) =      0.43311  eV     1   --> B_2  G_4 D_2'  
     e(  3 -  4) =      3.48588  eV     2   --> E    G_5 D_5   
     e(  5 -  5) =      6.67318  eV     1   --> A_1  G_1 D_1   
     e(  6 -  6) =      7.66664  eV     1   --> B_2  G_4 D_2'  
     e(  7 -  8) =     13.78280  eV     2   --> E    G_5 D_5   

 **************************************************************************

 **************************************************************************

                    xk=(   0.00000,   0.53033,   0.00000  )

     Band symmetry, C_4v (4mm)  point group:

     e(  1 -  1) =     -3.45912  eV     1   --> A_1  G_1 D_1   
     e(  2 -  2) =      0.29000  eV     1   --> B_2  G_4 D_2'  
     e(  3 -  4) =      3.45281  eV     2   --> E    G_5 D_5   
     e(  5 -  5) =      6.65693  eV     1   --> A_1  G_1 D_1   
     e(  6 -  6) =      7.58428  eV     1   --> B_2  G_4 D_2'  
     e(  7 -  8) =     13.93624  eV     2   --> E    G_5 D_5   

 **************************************************************************

 **************************************************************************

                    xk=(   0.00000,   0.54212,   0.00000  )

     Band symmetry, C_4v (4mm)  point group:

     e(  1 -  1) =     -3.35709  eV     1   --> A_1  G_1 D_1   
     e(  2 -  2) =      0.14761  eV     1   --> B_2  G_4 D_2'  
     e(  3 -  4) =      3.42183  eV     2   --> E    G_5 D_5   
     e(  5 -  5) =      6.64340  eV     1   --> A_1  G_1 D_1   
     e(  6 -  6) =      7.50535  eV     1   --> B_2  G_4 D_2'  
     e(  7 -  8) =     14.08999  eV     2   --> E    G_5 D_5   

 **************************************************************************

 **************************************************************************

                    xk=(   0.00000,   0.55390,   0.00000  )

     Band symmetry, C_4v (4mm)  point group:

     e(  1 -  1) =     -3.25316  eV     1   --> A_1  G_1 D_1   
     e(  2 -  2) =      0.00598  eV     1   --> B_2  G_4 D_2'  
     e(  3 -  4) =      3.39293  eV     2   --> E    G_5 D_5   
     e(  5 -  5) =      6.63261  eV     1   --> A_1  G_1 D_1   
     e(  6 -  6) =      7.42986  eV     1   --> B_2  G_4 D_2'  
     e(  7 -  8) =     14.24395  eV     2   --> E    G_5 D_5   

 **************************************************************************

 **************************************************************************

                    xk=(   0.00000,   0.56569,   0.00000  )

     Band symmetry, C_4v (4mm)  point group:

     e(  1 -  1) =     -3.14736  eV     1   --> A_1  G_1 D_1   
     e(  2 -  2) =     -0.13483  eV     1   --> B_2  G_4 D_2'  
     e(  3 -  4) =      3.36614  eV     2   --> E    G_5 D_5   
     e(  5 -  5) =      6.62460  eV     1   --> A_1  G_1 D_1   
     e(  6 -  6) =      7.35782  eV     1   --> B_2  G_4 D_2'  
     e(  7 -  8) =     14.39802  eV     2   --> E    G_5 D_5   

 **************************************************************************

 **************************************************************************

                    xk=(   0.00000,   0.57747,   0.00000  )

     Band symmetry, C_4v (4mm)  point group:

     e(  1 -  1) =     -3.03972  eV     1   --> A_1  G_1 D_1   
     e(  2 -  2) =     -0.27477  eV     1   --> B_2  G_4 D_2'  
     e(  3 -  4) =      3.34146  eV     2   --> E    G_5 D_5   
     e(  5 -  5) =      6.61943  eV     1   --> A_1  G_1 D_1   
     e(  6 -  6) =      7.28923  eV     1   --> B_2  G_4 D_2'  
     e(  7 -  8) =     14.55201  eV     2   --> E    G_5 D_5   

 **************************************************************************

 **************************************************************************

                    xk=(   0.00000,   0.58926,   0.00000  )

     Band symmetry, C_4v (4mm)  point group:

     e(  1 -  1) =     -2.93026  eV     1   --> A_1  G_1 D_1   
     e(  2 -  2) =     -0.41380  eV     1   --> B_2  G_4 D_2'  
     e(  3 -  4) =      3.31890  eV     2   --> E    G_5 D_5   
     e(  5 -  5) =      6.61711  eV     1   --> A_1  G_1 D_1   
     e(  6 -  6) =      7.22409  eV     1   --> B_2  G_4 D_2'  
     e(  7 -  8) =     14.70571  eV     2   --> E    G_5 D_5   

 **************************************************************************

 **************************************************************************

                    xk=(   0.00000,   0.60104,   0.00000  )

     Band symmetry, C_4v (4mm)  point group:

     e(  1 -  1) =     -2.81902  eV     1   --> A_1  G_1 D_1   
     e(  2 -  2) =     -0.55186  eV     1   --> B_2  G_4 D_2'  
     e(  3 -  4) =      3.29846  eV     2   --> E    G_5 D_5   
     e(  5 -  5) =      6.61771  eV     1   --> A_1  G_1 D_1   
     e(  6 -  6) =      7.16239  eV     1   --> B_2  G_4 D_2'  
     e(  7 -  8) =     14.85880  eV     2   --> E    G_5 D_5   

 **************************************************************************

 **************************************************************************

                    xk=(   0.00000,   0.61283,   0.00000  )

     Band symmetry, C_4v (4mm)  point group:

     e(  1 -  1) =     -2.70602  eV     1   --> A_1  G_1 D_1   
     e(  2 -  2) =     -0.68891  eV     1   --> B_2  G_4 D_2'  
     e(  3 -  4) =      3.28016  eV     2   --> E    G_5 D_5   
     e(  5 -  5) =      6.62123  eV     1   --> A_1  G_1 D_1   
     e(  6 -  6) =      7.10412  eV     1   --> B_2  G_4 D_2'  
     e(  7 -  8) =     15.01083  eV     2   --> E    G_5 D_5   

 **************************************************************************

 **************************************************************************

                    xk=(   0.00000,   0.62461,   0.00000  )

     Band symmetry, C_4v (4mm)  point group:

     e(  1 -  1) =     -2.59130  eV     1   --> A_1  G_1 D_1   
     e(  2 -  2) =     -0.82489  eV     1   --> B_2  G_4 D_2'  
     e(  3 -  4) =      3.26400  eV     2   --> E    G_5 D_5   
     e(  5 -  5) =      6.62774  eV     1   --> A_1  G_1 D_1   
     e(  6 -  6) =      7.04928  eV     1   --> B_2  G_4 D_2'  
     e(  7 -  8) =     15.16112  eV     2   --> E    G_5 D_5   

 **************************************************************************

 **************************************************************************

                    xk=(   0.00000,   0.63640,   0.00000  )

     Band symmetry, C_4v (4mm)  point group:

     e(  1 -  1) =     -2.47490  eV     1   --> A_1  G_1 D_1   
     e(  2 -  2) =     -0.95975  eV     1   --> B_2  G_4 D_2'  
     e(  3 -  4) =      3.24998  eV     2   --> E    G_5 D_5   
     e(  5 -  5) =      6.63725  eV     1   --> A_1  G_1 D_1   
     e(  6 -  6) =      6.99783  eV     1   --> B_2  G_4 D_2'  
     e(  7 -  8) =     15.30863  eV     2   --> E    G_5 D_5   

 **************************************************************************

 **************************************************************************

                    xk=(   0.00000,   0.64818,   0.00000  )

     Band symmetry, C_4v (4mm)  point group:

     e(  1 -  1) =     -2.35683  eV     1   --> A_1  G_1 D_1   
     e(  2 -  2) =     -1.09346  eV     1   --> B_2  G_4 D_2'  
     e(  3 -  4) =      3.23811  eV     2   --> E    G_5 D_5   
     e(  5 -  5) =      6.64981  eV     1   --> A_1  G_1 D_1   
     e(  6 -  6) =      6.94977  eV     1   --> B_2  G_4 D_2'  
     e(  7 -  8) =     15.45173  eV     2   --> E    G_5 D_5   

 **************************************************************************

 **************************************************************************

                    xk=(   0.00000,   0.65997,   0.00000  )

     Band symmetry, C_4v (4mm)  point group:

     e(  1 -  1) =     -2.23715  eV     1   --> A_1  G_1 D_1   
     e(  2 -  2) =     -1.22595  eV     1   --> B_2  G_4 D_2'  
     e(  3 -  4) =      3.22840  eV     2   --> E    G_5 D_5   
     e(  5 -  5) =      6.66545  eV     1   --> A_1  G_1 D_1   
     e(  6 -  6) =      6.90507  eV     1   --> B_2  G_4 D_2'  
     e(  7 -  8) =     15.58770  eV     2   --> E    G_5 D_5   

 **************************************************************************

 **************************************************************************

                    xk=(   0.00000,   0.67175,   0.00000  )

     Band symmetry, C_4v (4mm)  point group:

     e(  1 -  1) =     -2.11588  eV     1   --> A_1  G_1 D_1   
     e(  2 -  2) =     -1.35720  eV     1   --> B_2  G_4 D_2'  
     e(  3 -  4) =      3.22084  eV     2   --> E    G_5 D_5   
     e(  5 -  5) =      6.68419  eV     1   --> A_1  G_1 D_1   
     e(  6 -  6) =      6.86371  eV     1   --> B_2  G_4 D_2'  
     e(  7 -  8) =     15.71194  eV     2   --> E    G_5 D_5   

 **************************************************************************

 **************************************************************************

                    xk=(   0.00000,   0.68354,   0.00000  )

     Band symmetry, C_4v (4mm)  point group:

     e(  1 -  1) =     -1.99307  eV     1   --> A_1  G_1 D_1   
     e(  2 -  2) =     -1.48714  eV     1   --> B_2  G_4 D_2'  
     e(  3 -  4) =      3.21544  eV     2   --> E    G_5 D_5   
     e(  5 -  5) =      6.70608  eV     1   --> A_1  G_1 D_1   
     e(  6 -  6) =      6.82566  eV     1   --> B_2  G_4 D_2'  
     e(  7 -  8) =     15.81661  eV     2   --> E    G_5 D_5   

 **************************************************************************

 **************************************************************************

                    xk=(   0.00000,   0.69532,   0.00000  )

     Band symmetry, C_4v (4mm)  point group:

     e(  1 -  1) =     -1.86875  eV     1   --> A_1  G_1 D_1   
     e(  2 -  2) =     -1.61574  eV     1   --> B_2  G_4 D_2'  
     e(  3 -  4) =      3.21220  eV     2   --> E    G_5 D_5   
     e(  5 -  5) =      6.73114  eV     1   --> A_1  G_1 D_1   
     e(  6 -  6) =      6.79090  eV     1   --> B_2  G_4 D_2'  
     e(  7 -  8) =     15.88949  eV     2   --> E    G_5 D_5   

 **************************************************************************

 **************************************************************************

                    xk=(   0.00000,   0.70711,   0.00000  )

     zone border point and non-symmorphic group 
     symmetry decomposition not available

 **************************************************************************

 **************************************************************************

                    xk=(   0.00295,   0.70711,   0.00295  )

     zone border point and non-symmorphic group 
     symmetry decomposition not available

 **************************************************************************

 **************************************************************************

                    xk=(   0.00589,   0.70711,   0.00589  )

     zone border point and non-symmorphic group 
     symmetry decomposition not available

 **************************************************************************

 **************************************************************************

                    xk=(   0.00884,   0.70711,   0.00884  )

     zone border point and non-symmorphic group 
     symmetry decomposition not available

 **************************************************************************

 **************************************************************************

                    xk=(   0.01179,   0.70711,   0.01179  )

     zone border point and non-symmorphic group 
     symmetry decomposition not available

 **************************************************************************

 **************************************************************************

                    xk=(   0.01473,   0.70711,   0.01473  )

     zone border point and non-symmorphic group 
     symmetry decomposition not available

 **************************************************************************

 **************************************************************************

                    xk=(   0.01768,   0.70711,   0.01768  )

     zone border point and non-symmorphic group 
     symmetry decomposition not available

 **************************************************************************

 **************************************************************************

                    xk=(   0.02062,   0.70711,   0.02062  )

     zone border point and non-symmorphic group 
     symmetry decomposition not available

 **************************************************************************

 **************************************************************************

                    xk=(   0.02357,   0.70711,   0.02357  )

     zone border point and non-symmorphic group 
     symmetry decomposition not available

 **************************************************************************

 **************************************************************************

                    xk=(   0.02652,   0.70711,   0.02652  )

     zone border point and non-symmorphic group 
     symmetry decomposition not available

 **************************************************************************

 **************************************************************************

                    xk=(   0.02946,   0.70711,   0.02946  )

     zone border point and non-symmorphic group 
     symmetry decomposition not available

 **************************************************************************

 **************************************************************************

                    xk=(   0.03241,   0.70711,   0.03241  )

     zone border point and non-symmorphic group 
     symmetry decomposition not available

 **************************************************************************

 **************************************************************************

                    xk=(   0.03536,   0.70711,   0.03536  )

     zone border point and non-symmorphic group 
     symmetry decomposition not available

 **************************************************************************

 **************************************************************************

                    xk=(   0.03830,   0.70711,   0.03830  )

     zone border point and non-symmorphic group 
     symmetry decomposition not available

 **************************************************************************

 **************************************************************************

                    xk=(   0.04125,   0.70711,   0.04125  )

     zone border point and non-symmorphic group 
     symmetry decomposition not available

 **************************************************************************

 **************************************************************************

                    xk=(   0.04419,   0.70711,   0.04419  )

     zone border point and non-symmorphic group 
     symmetry decomposition not available

 **************************************************************************

 **************************************************************************

                    xk=(   0.04714,   0.70711,   0.04714  )

     zone border point and non-symmorphic group 
     symmetry decomposition not available

 **************************************************************************

 **************************************************************************

                    xk=(   0.05009,   0.70711,   0.05009  )

     zone border point and non-symmorphic group 
     symmetry decomposition not available

 **************************************************************************

 **************************************************************************

                    xk=(   0.05303,   0.70711,   0.05303  )

     zone border point and non-symmorphic group 
     symmetry decomposition not available

 **************************************************************************

 **************************************************************************

                    xk=(   0.05598,   0.70711,   0.05598  )

     zone border point and non-symmorphic group 
     symmetry decomposition not available

 **************************************************************************

 **************************************************************************

                    xk=(   0.05893,   0.70711,   0.05893  )

     zone border point and non-symmorphic group 
     symmetry decomposition not available

 **************************************************************************

 **************************************************************************

                    xk=(   0.06187,   0.70711,   0.06187  )

     zone border point and non-symmorphic group 
     symmetry decomposition not available

 **************************************************************************

 **************************************************************************

                    xk=(   0.06482,   0.70711,   0.06482  )

     zone border point and non-symmorphic group 
     symmetry decomposition not available

 **************************************************************************

 **************************************************************************

                    xk=(   0.06776,   0.70711,   0.06776  )

     zone border point and non-symmorphic group 
     symmetry decomposition not available

 **************************************************************************

 **************************************************************************

                    xk=(   0.07071,   0.70711,   0.07071  )

     zone border point and non-symmorphic group 
     symmetry decomposition not available

 **************************************************************************

 **************************************************************************

                    xk=(   0.07366,   0.70711,   0.07366  )

     zone border point and non-symmorphic group 
     symmetry decomposition not available

 **************************************************************************

 **************************************************************************

                    xk=(   0.07660,   0.70711,   0.07660  )

     zone border point and non-symmorphic group 
     symmetry decomposition not available

 **************************************************************************

 **************************************************************************

                    xk=(   0.07955,   0.70711,   0.07955  )

     zone border point and non-symmorphic group 
     symmetry decomposition not available

 **************************************************************************

 **************************************************************************

                    xk=(   0.08250,   0.70711,   0.08250  )

     zone border point and non-symmorphic group 
     symmetry decomposition not available

 **************************************************************************

 **************************************************************************

                    xk=(   0.08544,   0.70711,   0.08544  )

     zone border point and non-symmorphic group 
     symmetry decomposition not available

 **************************************************************************

 **************************************************************************

                    xk=(   0.08839,   0.70711,   0.08839  )

     zone border point and non-symmorphic group 
     symmetry decomposition not available

 **************************************************************************

 **************************************************************************

                    xk=(   0.09133,   0.70711,   0.09133  )

     zone border point and non-symmorphic group 
     symmetry decomposition not available

 **************************************************************************

 **************************************************************************

                    xk=(   0.09428,   0.70711,   0.09428  )

     zone border point and non-symmorphic group 
     symmetry decomposition not available

 **************************************************************************

 **************************************************************************

                    xk=(   0.09723,   0.70711,   0.09723  )

     zone border point and non-symmorphic group 
     symmetry decomposition not available

 **************************************************************************

 **************************************************************************

                    xk=(   0.10017,   0.70711,   0.10017  )

     zone border point and non-symmorphic group 
     symmetry decomposition not available

 **************************************************************************

 **************************************************************************

                    xk=(   0.10312,   0.70711,   0.10312  )

     zone border point and non-symmorphic group 
     symmetry decomposition not available

 **************************************************************************

 **************************************************************************

                    xk=(   0.10607,   0.70711,   0.10607  )

     zone border point and non-symmorphic group 
     symmetry decomposition not available

 **************************************************************************

 **************************************************************************

                    xk=(   0.10901,   0.70711,   0.10901  )

     zone border point and non-symmorphic group 
     symmetry decomposition not available

 **************************************************************************

 **************************************************************************

                    xk=(   0.11196,   0.70711,   0.11196  )

     zone border point and non-symmorphic group 
     symmetry decomposition not available

 **************************************************************************

 **************************************************************************

                    xk=(   0.11490,   0.70711,   0.11490  )

     zone border point and non-symmorphic group 
     symmetry decomposition not available

 **************************************************************************

 **************************************************************************

                    xk=(   0.11785,   0.70711,   0.11785  )

     zone border point and non-symmorphic group 
     symmetry decomposition not available

 **************************************************************************

 **************************************************************************

                    xk=(   0.12080,   0.70711,   0.12080  )

     zone border point and non-symmorphic group 
     symmetry decomposition not available

 **************************************************************************

 **************************************************************************

                    xk=(   0.12374,   0.70711,   0.12374  )

     zone border point and non-symmorphic group 
     symmetry decomposition not available

 **************************************************************************

 **************************************************************************

                    xk=(   0.12669,   0.70711,   0.12669  )

     zone border point and non-symmorphic group 
     symmetry decomposition not available

 **************************************************************************

 **************************************************************************

                    xk=(   0.12964,   0.70711,   0.12964  )

     zone border point and non-symmorphic group 
     symmetry decomposition not available

 **************************************************************************

 **************************************************************************

                    xk=(   0.13258,   0.70711,   0.13258  )

     zone border point and non-symmorphic group 
     symmetry decomposition not available

 **************************************************************************

 **************************************************************************

                    xk=(   0.13553,   0.70711,   0.13553  )

     zone border point and non-symmorphic group 
     symmetry decomposition not available

 **************************************************************************

 **************************************************************************

                    xk=(   0.13848,   0.70711,   0.13848  )

     zone border point and non-symmorphic group 
     symmetry decomposition not available

 **************************************************************************

 **************************************************************************

                    xk=(   0.14142,   0.70711,   0.14142  )

     zone border point and non-symmorphic group 
     symmetry decomposition not available

 **************************************************************************

 **************************************************************************

                    xk=(   0.14437,   0.70711,   0.14437  )

     zone border point and non-symmorphic group 
     symmetry decomposition not available

 **************************************************************************

 **************************************************************************

                    xk=(   0.14731,   0.70711,   0.14731  )

     zone border point and non-symmorphic group 
     symmetry decomposition not available

 **************************************************************************

 **************************************************************************

                    xk=(   0.15026,   0.70711,   0.15026  )

     zone border point and non-symmorphic group 
     symmetry decomposition not available

 **************************************************************************

 **************************************************************************

                    xk=(   0.15321,   0.70711,   0.15321  )

     zone border point and non-symmorphic group 
     symmetry decomposition not available

 **************************************************************************

 **************************************************************************

                    xk=(   0.15615,   0.70711,   0.15615  )

     zone border point and non-symmorphic group 
     symmetry decomposition not available

 **************************************************************************

 **************************************************************************

                    xk=(   0.15910,   0.70711,   0.15910  )

     zone border point and non-symmorphic group 
     symmetry decomposition not available

 **************************************************************************

 **************************************************************************

                    xk=(   0.16205,   0.70711,   0.16205  )

     zone border point and non-symmorphic group 
     symmetry decomposition not available

 **************************************************************************

 **************************************************************************

                    xk=(   0.16499,   0.70711,   0.16499  )

     zone border point and non-symmorphic group 
     symmetry decomposition not available

 **************************************************************************

 **************************************************************************

                    xk=(   0.16794,   0.70711,   0.16794  )

     zone border point and non-symmorphic group 
     symmetry decomposition not available

 **************************************************************************

 **************************************************************************

                    xk=(   0.17088,   0.70711,   0.17088  )

     zone border point and non-symmorphic group 
     symmetry decomposition not available

 **************************************************************************

 **************************************************************************

                    xk=(   0.17383,   0.70711,   0.17383  )

     zone border point and non-symmorphic group 
     symmetry decomposition not available

 **************************************************************************

 **************************************************************************

                    xk=(   0.17678,   0.70711,   0.17678  )

     zone border point and non-symmorphic group 
     symmetry decomposition not available

 **************************************************************************

 **************************************************************************

                    xk=(   0.53033,   0.53033,   0.00000  )

     Band symmetry, C_2v (mm2)  point group:

     e(  1 -  1) =     -2.15779  eV     1   --> A_1  D_1  S_1  
     e(  2 -  2) =     -1.16087  eV     1   --> B_2  D_4  S_4  
     e(  3 -  3) =      1.80594  eV     1   --> A_1  D_1  S_1  
     e(  4 -  4) =      3.62986  eV     1   --> A_2  D_2  S_2  
     e(  5 -  5) =      7.24119  eV     1   --> B_2  D_4  S_4  
     e(  6 -  6) =     10.12018  eV     1   --> A_1  D_1  S_1  
     e(  7 -  7) =     13.37614  eV     1   --> B_1  D_3  S_3  
     e(  8 -  8) =     13.92299  eV     1   --> A_1  D_1  S_1  

 **************************************************************************

 **************************************************************************

                    xk=(   0.52149,   0.52149,   0.00000  )

     Band symmetry, C_2v (mm2)  point group:

     e(  1 -  1) =     -2.21495  eV     1   --> A_1  D_1  S_1  
     e(  2 -  2) =     -1.10139  eV     1   --> B_2  D_4  S_4  
     e(  3 -  3) =      1.76714  eV     1   --> A_1  D_1  S_1  
     e(  4 -  4) =      3.67131  eV     1   --> A_2  D_2  S_2  
     e(  5 -  5) =      7.28890  eV     1   --> B_2  D_4  S_4  
     e(  6 -  6) =     10.37004  eV     1   --> A_1  D_1  S_1  
     e(  7 -  7) =     13.22560  eV     1   --> B_1  D_3  S_3  
     e(  8 -  8) =     13.76542  eV     1   --> A_1  D_1  S_1  

 **************************************************************************

 **************************************************************************

                    xk=(   0.51265,   0.51265,   0.00000  )

     Band symmetry, C_2v (mm2)  point group:

     e(  1 -  1) =     -2.27643  eV     1   --> A_1  D_1  S_1  
     e(  2 -  2) =     -1.03906  eV     1   --> B_2  D_4  S_4  
     e(  3 -  3) =      1.73630  eV     1   --> A_1  D_1  S_1  
     e(  4 -  4) =      3.71446  eV     1   --> A_2  D_2  S_2  
     e(  5 -  5) =      7.33855  eV     1   --> B_2  D_4  S_4  
     e(  6 -  6) =     10.62235  eV     1   --> A_1  D_1  S_1  
     e(  7 -  7) =     13.07660  eV     1   --> B_1  D_3  S_3  
     e(  8 -  8) =     13.61115  eV     1   --> A_1  D_1  S_1  

 **************************************************************************

 **************************************************************************

                    xk=(   0.50381,   0.50381,   0.00000  )

     Band symmetry, C_2v (mm2)  point group:

     e(  1 -  1) =     -2.34205  eV     1   --> A_1  D_1  S_1  
     e(  2 -  2) =     -0.97387  eV     1   --> B_2  D_4  S_4  
     e(  3 -  3) =      1.71343  eV     1   --> A_1  D_1  S_1  
     e(  4 -  4) =      3.75927  eV     1   --> A_2  D_2  S_2  
     e(  5 -  5) =      7.39010  eV     1   --> B_2  D_4  S_4  
     e(  6 -  6) =     10.87635  eV     1   --> A_1  D_1  S_1  
     e(  7 -  7) =     12.92926  eV     1   --> B_1  D_3  S_3  
     e(  8 -  8) =     13.46076  eV     1   --> A_1  D_1  S_1  

 **************************************************************************

 **************************************************************************

                    xk=(   0.49497,   0.49497,   0.00000  )

     Band symmetry, C_2v (mm2)  point group:

     e(  1 -  1) =     -2.41163  eV     1   --> A_1  D_1  S_1  
     e(  2 -  2) =     -0.90584  eV     1   --> B_2  D_4  S_4  
     e(  3 -  3) =      1.69846  eV     1   --> A_1  D_1  S_1  
     e(  4 -  4) =      3.80569  eV     1   --> A_2  D_2  S_2  
     e(  5 -  5) =      7.44344  eV     1   --> B_2  D_4  S_4  
     e(  6 -  6) =     11.13087  eV     1   --> A_1  D_1  S_1  
     e(  7 -  7) =     12.78368  eV     1   --> B_1  D_3  S_3  
     e(  8 -  8) =     13.31518  eV     1   --> A_1  D_1  S_1  

 **************************************************************************

 **************************************************************************

                    xk=(   0.48614,   0.48614,   0.00000  )

     Band symmetry, C_2v (mm2)  point group:

     e(  1 -  1) =     -2.48489  eV     1   --> A_1  D_1  S_1  
     e(  2 -  2) =     -0.83496  eV     1   --> B_2  D_4  S_4  
     e(  3 -  3) =      1.69125  eV     1   --> A_1  D_1  S_1  
     e(  4 -  4) =      3.85364  eV     1   --> A_2  D_2  S_2  
     e(  5 -  5) =      7.49852  eV     1   --> B_2  D_4  S_4  
     e(  6 -  6) =     11.38400  eV     1   --> A_1  D_1  S_1  
     e(  7 -  7) =     12.63997  eV     1   --> B_1  D_3  S_3  
     e(  8 -  8) =     13.17612  eV     1   --> A_1  D_1  S_1  

 **************************************************************************

 **************************************************************************

                    xk=(   0.47730,   0.47730,   0.00000  )

     Band symmetry, C_2v (mm2)  point group:

     e(  1 -  1) =     -2.56155  eV     1   --> A_1  D_1  S_1  
     e(  2 -  2) =     -0.76124  eV     1   --> B_2  D_4  S_4  
     e(  3 -  3) =      1.69161  eV     1   --> A_1  D_1  S_1  
     e(  4 -  4) =      3.90308  eV     1   --> A_2  D_2  S_2  
     e(  5 -  5) =      7.55524  eV     1   --> B_2  D_4  S_4  
     e(  6 -  6) =     11.63201  eV     1   --> A_1  D_1  S_1  
     e(  7 -  7) =     12.49820  eV     1   --> B_1  D_3  S_3  
     e(  8 -  8) =     13.04707  eV     1   --> A_1  D_1  S_1  

 **************************************************************************

 **************************************************************************

                    xk=(   0.46846,   0.46846,   0.00000  )

     Band symmetry, C_2v (mm2)  point group:

     e(  1 -  1) =     -2.64127  eV     1   --> A_1  D_1  S_1  
     e(  2 -  2) =     -0.68470  eV     1   --> B_2  D_4  S_4  
     e(  3 -  3) =      1.69930  eV     1   --> A_1  D_1  S_1  
     e(  4 -  4) =      3.95393  eV     1   --> A_2  D_2  S_2  
     e(  5 -  5) =      7.61349  eV     1   --> B_2  D_4  S_4  
     e(  6 -  6) =     11.86654  eV     1   --> A_1  D_1  S_1  
     e(  7 -  7) =     12.35845  eV     1   --> B_1  D_3  S_3  
     e(  8 -  8) =     12.93616  eV     1   --> A_1  D_1  S_1  

 **************************************************************************

 **************************************************************************

                    xk=(   0.45962,   0.45962,   0.00000  )

     Band symmetry, C_2v (mm2)  point group:

     e(  1 -  1) =     -2.72372  eV     1   --> A_1  D_1  S_1  
     e(  2 -  2) =     -0.60534  eV     1   --> B_2  D_4  S_4  
     e(  3 -  3) =      1.71406  eV     1   --> A_1  D_1  S_1  
     e(  4 -  4) =      4.00612  eV     1   --> A_2  D_2  S_2  
     e(  5 -  5) =      7.67316  eV     1   --> B_2  D_4  S_4  
     e(  6 -  6) =     12.06644  eV     1   --> A_1  D_1  S_1  
     e(  7 -  7) =     12.22077  eV     1   --> B_1  D_3  S_3  
     e(  8 -  8) =     12.86426  eV     1   --> A_1  D_1  S_1  

 **************************************************************************

 **************************************************************************

                    xk=(   0.45078,   0.45078,   0.00000  )

     Band symmetry, C_2v (mm2)  point group:

     e(  1 -  1) =     -2.80854  eV     1   --> A_1  D_1  S_1  
     e(  2 -  2) =     -0.52317  eV     1   --> B_2  D_4  S_4  
     e(  3 -  3) =      1.73560  eV     1   --> A_1  D_1  S_1  
     e(  4 -  4) =      4.05958  eV     1   --> A_2  D_2  S_2  
     e(  5 -  5) =      7.73415  eV     1   --> B_2  D_4  S_4  
     e(  6 -  6) =     12.08524  eV     1   --> B_1  D_3  S_3  
     e(  7 -  7) =     12.18558  eV     1   --> A_1  D_1  S_1  
     e(  8 -  8) =     12.87721  eV     1   --> A_1  D_1  S_1  

 **************************************************************************

 **************************************************************************

                    xk=(   0.44194,   0.44194,   0.00000  )

     Band symmetry, C_2v (mm2)  point group:

     e(  1 -  1) =     -2.89538  eV     1   --> A_1  D_1  S_1  
     e(  2 -  2) =     -0.43820  eV     1   --> B_2  D_4  S_4  
     e(  3 -  3) =      1.76362  eV     1   --> A_1  D_1  S_1  
     e(  4 -  4) =      4.11422  eV     1   --> A_2  D_2  S_2  
     e(  5 -  5) =      7.79630  eV     1   --> B_2  D_4  S_4  
     e(  6 -  6) =     11.95190  eV     1   --> B_1  D_3  S_3  
     e(  7 -  7) =     12.19092  eV     1   --> A_1  D_1  S_1  
     e(  8 -  8) =     12.92119  eV     1   --> B_2  D_4  S_4  

 **************************************************************************

 **************************************************************************

                    xk=(   0.43310,   0.43310,   0.00000  )

     Band symmetry, C_2v (mm2)  point group:

     e(  1 -  1) =     -2.98389  eV     1   --> A_1  D_1  S_1  
     e(  2 -  2) =     -0.35043  eV     1   --> B_2  D_4  S_4  
     e(  3 -  3) =      1.79781  eV     1   --> A_1  D_1  S_1  
     e(  4 -  4) =      4.16996  eV     1   --> A_2  D_2  S_2  
     e(  5 -  5) =      7.85947  eV     1   --> B_2  D_4  S_4  
     e(  6 -  6) =     11.82081  eV     1   --> B_1  D_3  S_3  
     e(  7 -  7) =     12.12140  eV     1   --> A_1  D_1  S_1  
     e(  8 -  8) =     12.81768  eV     1   --> B_2  D_4  S_4  

 **************************************************************************

 **************************************************************************

                    xk=(   0.42426,   0.42426,   0.00000  )

     Band symmetry, C_2v (mm2)  point group:

     e(  1 -  1) =     -3.07374  eV     1   --> A_1  D_1  S_1  
     e(  2 -  2) =     -0.25988  eV     1   --> B_2  D_4  S_4  
     e(  3 -  3) =      1.83788  eV     1   --> A_1  D_1  S_1  
     e(  4 -  4) =      4.22671  eV     1   --> A_2  D_2  S_2  
     e(  5 -  5) =      7.92350  eV     1   --> B_2  D_4  S_4  
     e(  6 -  6) =     11.69199  eV     1   --> B_1  D_3  S_3  
     e(  7 -  7) =     12.02080  eV     1   --> A_1  D_1  S_1  
     e(  8 -  8) =     12.71695  eV     1   --> B_2  D_4  S_4  

 **************************************************************************

 **************************************************************************

                    xk=(   0.41543,   0.41543,   0.00000  )

     Band symmetry, C_2v (mm2)  point group:

     e(  1 -  1) =     -3.16461  eV     1   --> A_1  D_1  S_1  
     e(  2 -  2) =     -0.16656  eV     1   --> B_2  D_4  S_4  
     e(  3 -  3) =      1.88353  eV     1   --> A_1  D_1  S_1  
     e(  4 -  4) =      4.28437  eV     1   --> A_2  D_2  S_2  
     e(  5 -  5) =      7.98820  eV     1   --> B_2  D_4  S_4  
     e(  6 -  6) =     11.56550  eV     1   --> B_1  D_3  S_3  
     e(  7 -  7) =     11.90815  eV     1   --> A_1  D_1  S_1  
     e(  8 -  8) =     12.61917  eV     1   --> B_2  D_4  S_4  

 **************************************************************************

 **************************************************************************

                    xk=(   0.40659,   0.40659,   0.00000  )

     Band symmetry, C_2v (mm2)  point group:

     e(  1 -  1) =     -3.25618  eV     1   --> A_1  D_1  S_1  
     e(  2 -  2) =     -0.07048  eV     1   --> B_2  D_4  S_4  
     e(  3 -  3) =      1.93446  eV     1   --> A_1  D_1  S_1  
     e(  4 -  4) =      4.34284  eV     1   --> A_2  D_2  S_2  
     e(  5 -  5) =      8.05337  eV     1   --> B_2  D_4  S_4  
     e(  6 -  6) =     11.44136  eV     1   --> B_1  D_3  S_3  
     e(  7 -  7) =     11.79089  eV     1   --> A_1  D_1  S_1  
     e(  8 -  8) =     12.52454  eV     1   --> B_2  D_4  S_4  

 **************************************************************************

 **************************************************************************

                    xk=(   0.39775,   0.39775,   0.00000  )

     Band symmetry, C_2v (mm2)  point group:

     e(  1 -  1) =     -3.34817  eV     1   --> A_1  D_1  S_1  
     e(  2 -  2) =      0.02835  eV     1   --> B_2  D_4  S_4  
     e(  3 -  3) =      1.99042  eV     1   --> A_1  D_1  S_1  
     e(  4 -  4) =      4.40200  eV     1   --> A_2  D_2  S_2  
     e(  5 -  5) =      8.11879  eV     1   --> B_2  D_4  S_4  
     e(  6 -  6) =     11.31961  eV     1   --> B_1  D_3  S_3  
     e(  7 -  7) =     11.67222  eV     1   --> A_1  D_1  S_1  
     e(  8 -  8) =     12.43326  eV     1   --> B_2  D_4  S_4  

 **************************************************************************

 **************************************************************************

                    xk=(   0.38891,   0.38891,   0.00000  )

     Band symmetry, C_2v (mm2)  point group:

     e(  1 -  1) =     -3.44033  eV     1   --> A_1  D_1  S_1  
     e(  2 -  2) =      0.12992  eV     1   --> B_2  D_4  S_4  
     e(  3 -  3) =      2.05115  eV     1   --> A_1  D_1  S_1  
     e(  4 -  4) =      4.46175  eV     1   --> A_2  D_2  S_2  
     e(  5 -  5) =      8.18422  eV     1   --> B_2  D_4  S_4  
     e(  6 -  6) =     11.20027  eV     1   --> B_1  D_3  S_3  
     e(  7 -  7) =     11.55373  eV     1   --> A_1  D_1  S_1  
     e(  8 -  8) =     12.34554  eV     1   --> B_2  D_4  S_4  

 **************************************************************************

 **************************************************************************

                    xk=(   0.38007,   0.38007,   0.00000  )

     Band symmetry, C_2v (mm2)  point group:

     e(  1 -  1) =     -3.53239  eV     1   --> A_1  D_1  S_1  
     e(  2 -  2) =      0.23420  eV     1   --> B_2  D_4  S_4  
     e(  3 -  3) =      2.11638  eV     1   --> A_1  D_1  S_1  
     e(  4 -  4) =      4.52196  eV     1   --> A_2  D_2  S_2  
     e(  5 -  5) =      8.24938  eV     1   --> B_2  D_4  S_4  
     e(  6 -  6) =     11.08339  eV     1   --> B_1  D_3  S_3  
     e(  7 -  7) =     11.43625  eV     1   --> A_1  D_1  S_1  
     e(  8 -  8) =     12.26161  eV     1   --> B_2  D_4  S_4  

 **************************************************************************

 **************************************************************************

                    xk=(   0.37123,   0.37123,   0.00000  )

     Band symmetry, C_2v (mm2)  point group:

     e(  1 -  1) =     -3.62414  eV     1   --> A_1  D_1  S_1  
     e(  2 -  2) =      0.34120  eV     1   --> B_2  D_4  S_4  
     e(  3 -  3) =      2.18590  eV     1   --> A_1  D_1  S_1  
     e(  4 -  4) =      4.58252  eV     1   --> A_2  D_2  S_2  
     e(  5 -  5) =      8.31398  eV     1   --> B_2  D_4  S_4  
     e(  6 -  6) =     10.96897  eV     1   --> B_1  D_3  S_3  
     e(  7 -  7) =     11.32027  eV     1   --> A_1  D_1  S_1  
     e(  8 -  8) =     12.18169  eV     1   --> B_2  D_4  S_4  

 **************************************************************************

 **************************************************************************

                    xk=(   0.36239,   0.36239,   0.00000  )

     Band symmetry, C_2v (mm2)  point group:

     e(  1 -  1) =     -3.71536  eV     1   --> A_1  D_1  S_1  
     e(  2 -  2) =      0.45088  eV     1   --> B_2  D_4  S_4  
     e(  3 -  3) =      2.25948  eV     1   --> A_1  D_1  S_1  
     e(  4 -  4) =      4.64328  eV     1   --> A_2  D_2  S_2  
     e(  5 -  5) =      8.37770  eV     1   --> B_2  D_4  S_4  
     e(  6 -  6) =     10.85704  eV     1   --> B_1  D_3  S_3  
     e(  7 -  7) =     11.20610  eV     1   --> A_1  D_1  S_1  
     e(  8 -  8) =     12.10602  eV     1   --> B_2  D_4  S_4  

 **************************************************************************

 **************************************************************************

                    xk=(   0.35355,   0.35355,   0.00000  )

     Band symmetry, C_2v (mm2)  point group:

     e(  1 -  1) =     -3.80586  eV     1   --> A_1  D_1  S_1  
     e(  2 -  2) =      0.56324  eV     1   --> B_2  D_4  S_4  
     e(  3 -  3) =      2.33691  eV     1   --> A_1  D_1  S_1  
     e(  4 -  4) =      4.70412  eV     1   --> A_2  D_2  S_2  
     e(  5 -  5) =      8.44019  eV     1   --> B_2  D_4  S_4  
     e(  6 -  6) =     10.74763  eV     1   --> B_1  D_3  S_3  
     e(  7 -  7) =     11.09394  eV     1   --> A_1  D_1  S_1  
     e(  8 -  8) =     12.03486  eV     1   --> B_2  D_4  S_4  

 **************************************************************************

 **************************************************************************

                    xk=(   0.34471,   0.34471,   0.00000  )

     Band symmetry, C_2v (mm2)  point group:

     e(  1 -  1) =     -3.89546  eV     1   --> A_1  D_1  S_1  
     e(  2 -  2) =      0.67826  eV     1   --> B_2  D_4  S_4  
     e(  3 -  3) =      2.41799  eV     1   --> A_1  D_1  S_1  
     e(  4 -  4) =      4.76489  eV     1   --> A_2  D_2  S_2  
     e(  5 -  5) =      8.50109  eV     1   --> B_2  D_4  S_4  
     e(  6 -  6) =     10.64074  eV     1   --> B_1  D_3  S_3  
     e(  7 -  7) =     10.98391  eV     1   --> A_1  D_1  S_1  
     e(  8 -  8) =     11.96844  eV     1   --> B_2  D_4  S_4  

 **************************************************************************

 **************************************************************************

                    xk=(   0.33588,   0.33588,   0.00000  )

     Band symmetry, C_2v (mm2)  point group:

     e(  1 -  1) =     -3.98401  eV     1   --> A_1  D_1  S_1  
     e(  2 -  2) =      0.79592  eV     1   --> B_2  D_4  S_4  
     e(  3 -  3) =      2.50253  eV     1   --> A_1  D_1  S_1  
     e(  4 -  4) =      4.82546  eV     1   --> A_2  D_2  S_2  
[...]

 **************************************************************************

                    xk=(   0.35355,   0.68943,   0.01768  )

     zone border point and non-symmorphic group 
     symmetry decomposition not available

 **************************************************************************

 **************************************************************************

                    xk=(   0.35355,   0.69532,   0.01179  )

     zone border point and non-symmorphic group 
     symmetry decomposition not available

 **************************************************************************

 **************************************************************************

                    xk=(   0.35355,   0.70121,   0.00589  )

     zone border point and non-symmorphic group 
     symmetry decomposition not available

 **************************************************************************

 **************************************************************************

                    xk=(   0.35355,   0.70711,   0.00000  )

     zone border point and non-symmorphic group 
     symmetry decomposition not available

 **************************************************************************

 **************************************************************************

                    xk=(   0.34766,   0.70711,   0.00000  )

     zone border point and non-symmorphic group 
     symmetry decomposition not available

 **************************************************************************

 **************************************************************************

                    xk=(   0.34177,   0.70711,   0.00000  )

     zone border point and non-symmorphic group 
     symmetry decomposition not available

 **************************************************************************

 **************************************************************************

                    xk=(   0.33588,   0.70711,   0.00000  )

     zone border point and non-symmorphic group 
     symmetry decomposition not available

 **************************************************************************

 **************************************************************************

                    xk=(   0.32998,   0.70711,   0.00000  )

     zone border point and non-symmorphic group 
     symmetry decomposition not available

 **************************************************************************

 **************************************************************************

                    xk=(   0.32409,   0.70711,   0.00000  )

     zone border point and non-symmorphic group 
     symmetry decomposition not available

 **************************************************************************

 **************************************************************************

                    xk=(   0.31820,   0.70711,   0.00000  )

     zone border point and non-symmorphic group 
     symmetry decomposition not available

 **************************************************************************

 **************************************************************************

                    xk=(   0.31231,   0.70711,   0.00000  )

     zone border point and non-symmorphic group 
     symmetry decomposition not available

 **************************************************************************

 **************************************************************************

                    xk=(   0.30641,   0.70711,   0.00000  )

     zone border point and non-symmorphic group 
     symmetry decomposition not available

 **************************************************************************

 **************************************************************************

                    xk=(   0.30052,   0.70711,   0.00000  )

     zone border point and non-symmorphic group 
     symmetry decomposition not available

 **************************************************************************

 **************************************************************************

                    xk=(   0.29463,   0.70711,  -0.00000  )

     zone border point and non-symmorphic group 
     symmetry decomposition not available

 **************************************************************************

 **************************************************************************

                    xk=(   0.28874,   0.70711,   0.00000  )

     zone border point and non-symmorphic group 
     symmetry decomposition not available

 **************************************************************************

 **************************************************************************

                    xk=(   0.28284,   0.70711,   0.00000  )

     zone border point and non-symmorphic group 
     symmetry decomposition not available

 **************************************************************************

 **************************************************************************

                    xk=(   0.27695,   0.70711,   0.00000  )

     zone border point and non-symmorphic group 
     symmetry decomposition not available

 **************************************************************************

 **************************************************************************

                    xk=(   0.27106,   0.70711,   0.00000  )

     zone border point and non-symmorphic group 
     symmetry decomposition not available

 **************************************************************************

 **************************************************************************

                    xk=(   0.26517,   0.70711,   0.00000  )

     zone border point and non-symmorphic group 
     symmetry decomposition not available

 **************************************************************************

 **************************************************************************

                    xk=(   0.25927,   0.70711,  -0.00000  )

     zone border point and non-symmorphic group 
     symmetry decomposition not available

 **************************************************************************

 **************************************************************************

                    xk=(   0.25338,   0.70711,   0.00000  )

     zone border point and non-symmorphic group 
     symmetry decomposition not available

 **************************************************************************

 **************************************************************************

                    xk=(   0.24749,   0.70711,   0.00000  )

     zone border point and non-symmorphic group 
     symmetry decomposition not available

 **************************************************************************

 **************************************************************************

                    xk=(   0.24159,   0.70711,  -0.00000  )

     zone border point and non-symmorphic group 
     symmetry decomposition not available

 **************************************************************************

 **************************************************************************

                    xk=(   0.23570,   0.70711,   0.00000  )

     zone border point and non-symmorphic group 
     symmetry decomposition not available

 **************************************************************************

 **************************************************************************

                    xk=(   0.22981,   0.70711,   0.00000  )

     zone border point and non-symmorphic group 
     symmetry decomposition not available

 **************************************************************************

 **************************************************************************

                    xk=(   0.22392,   0.70711,   0.00000  )

     zone border point and non-symmorphic group 
     symmetry decomposition not available

 **************************************************************************

 **************************************************************************

                    xk=(   0.21802,   0.70711,   0.00000  )

     zone border point and non-symmorphic group 
     symmetry decomposition not available

 **************************************************************************

 **************************************************************************

                    xk=(   0.21213,   0.70711,   0.00000  )

     zone border point and non-symmorphic group 
     symmetry decomposition not available

 **************************************************************************

 **************************************************************************

                    xk=(   0.20624,   0.70711,  -0.00000  )

     zone border point and non-symmorphic group 
     symmetry decomposition not available

 **************************************************************************

 **************************************************************************

                    xk=(   0.20035,   0.70711,   0.00000  )

     zone border point and non-symmorphic group 
     symmetry decomposition not available

 **************************************************************************

 **************************************************************************

                    xk=(   0.19445,   0.70711,   0.00000  )

     zone border point and non-symmorphic group 
     symmetry decomposition not available

 **************************************************************************

 **************************************************************************

                    xk=(   0.18856,   0.70711,   0.00000  )

     zone border point and non-symmorphic group 
     symmetry decomposition not available

 **************************************************************************

 **************************************************************************

                    xk=(   0.18267,   0.70711,   0.00000  )

     zone border point and non-symmorphic group 
     symmetry decomposition not available

 **************************************************************************

 **************************************************************************

                    xk=(   0.17678,   0.70711,   0.00000  )

     zone border point and non-symmorphic group 
     symmetry decomposition not available

 **************************************************************************

 **************************************************************************

                    xk=(   0.17088,   0.70711,   0.00000  )

     zone border point and non-symmorphic group 
     symmetry decomposition not available

 **************************************************************************

 **************************************************************************

                    xk=(   0.16499,   0.70711,   0.00000  )

     zone border point and non-symmorphic group 
     symmetry decomposition not available

 **************************************************************************

 **************************************************************************

                    xk=(   0.15910,   0.70711,   0.00000  )

     zone border point and non-symmorphic group 
     symmetry decomposition not available

 **************************************************************************

 **************************************************************************

                    xk=(   0.15321,   0.70711,  -0.00000  )

     zone border point and non-symmorphic group 
     symmetry decomposition not available

 **************************************************************************

 **************************************************************************

                    xk=(   0.14731,   0.70711,   0.00000  )

     zone border point and non-symmorphic group 
     symmetry decomposition not available

 **************************************************************************

 **************************************************************************

                    xk=(   0.14142,   0.70711,   0.00000  )

     zone border point and non-symmorphic group 
     symmetry decomposition not available

 **************************************************************************

 **************************************************************************

                    xk=(   0.13553,   0.70711,   0.00000  )

     zone border point and non-symmorphic group 
     symmetry decomposition not available

 **************************************************************************

 **************************************************************************

                    xk=(   0.12964,   0.70711,   0.00000  )

     zone border point and non-symmorphic group 
     symmetry decomposition not available

 **************************************************************************

 **************************************************************************

                    xk=(   0.12374,   0.70711,  -0.00000  )

     zone border point and non-symmorphic group 
     symmetry decomposition not available

 **************************************************************************

 **************************************************************************

                    xk=(   0.11785,   0.70711,   0.00000  )

     zone border point and non-symmorphic group 
     symmetry decomposition not available

 **************************************************************************

 **************************************************************************

                    xk=(   0.11196,   0.70711,   0.00000  )

     zone border point and non-symmorphic group 
     symmetry decomposition not available

 **************************************************************************

 **************************************************************************

                    xk=(   0.10607,   0.70711,   0.00000  )

     zone border point and non-symmorphic group 
     symmetry decomposition not available

 **************************************************************************

 **************************************************************************

                    xk=(   0.10017,   0.70711,   0.00000  )

     zone border point and non-symmorphic group 
     symmetry decomposition not available

 **************************************************************************

 **************************************************************************

                    xk=(   0.09428,   0.70711,   0.00000  )

     zone border point and non-symmorphic group 
     symmetry decomposition not available

 **************************************************************************

 **************************************************************************

                    xk=(   0.08839,   0.70711,   0.00000  )

     zone border point and non-symmorphic group 
     symmetry decomposition not available

 **************************************************************************

 **************************************************************************

                    xk=(   0.08250,   0.70711,   0.00000  )

     zone border point and non-symmorphic group 
     symmetry decomposition not available

 **************************************************************************

 **************************************************************************

                    xk=(   0.07660,   0.70711,   0.00000  )

     zone border point and non-symmorphic group 
     symmetry decomposition not available

 **************************************************************************

 **************************************************************************

                    xk=(   0.07071,   0.70711,  -0.00000  )

     zone border point and non-symmorphic group 
     symmetry decomposition not available

 **************************************************************************

 **************************************************************************

                    xk=(   0.06482,   0.70711,  -0.00000  )

     zone border point and non-symmorphic group 
     symmetry decomposition not available

 **************************************************************************

 **************************************************************************

                    xk=(   0.05893,   0.70711,   0.00000  )

     zone border point and non-symmorphic group 
     symmetry decomposition not available

 **************************************************************************

 **************************************************************************

                    xk=(   0.05303,   0.70711,   0.00000  )

     zone border point and non-symmorphic group 
     symmetry decomposition not available

 **************************************************************************

 **************************************************************************

                    xk=(   0.04714,   0.70711,   0.00000  )

     zone border point and non-symmorphic group 
     symmetry decomposition not available

 **************************************************************************

 **************************************************************************

                    xk=(   0.04125,   0.70711,   0.00000  )

     zone border point and non-symmorphic group 
     symmetry decomposition not available

 **************************************************************************

 **************************************************************************

                    xk=(   0.03536,   0.70711,   0.00000  )

     zone border point and non-symmorphic group 
     symmetry decomposition not available

 **************************************************************************

 **************************************************************************

                    xk=(   0.02946,   0.70711,  -0.00000  )

     zone border point and non-symmorphic group 
     symmetry decomposition not available

 **************************************************************************

 **************************************************************************

                    xk=(   0.02357,   0.70711,   0.00000  )

     zone border point and non-symmorphic group 
     symmetry decomposition not available

 **************************************************************************

 **************************************************************************

                    xk=(   0.01768,   0.70711,   0.00000  )

     zone border point and non-symmorphic group 
     symmetry decomposition not available

 **************************************************************************

 **************************************************************************

                    xk=(   0.01179,   0.70711,   0.00000  )

     zone border point and non-symmorphic group 
     symmetry decomposition not available

 **************************************************************************

 **************************************************************************

                    xk=(   0.00589,   0.70711,   0.00000  )

     zone border point and non-symmorphic group 
     symmetry decomposition not available

 **************************************************************************

 **************************************************************************

                    xk=(   0.00000,   0.70711,   0.00000  )

     zone border point and non-symmorphic group 
     symmetry decomposition not available

 **************************************************************************
 
     BANDS        :    10.67s CPU        11.43s WALL

 
   This run was terminated on:  18:41:24  23Mar2020            

=------------------------------------------------------------------------------=
   JOB DONE.
=------------------------------------------------------------------------------=
