mpijob CMD    : mpirun -f /tmp/mpiexec.params.k050801.24930
mpijob PARAMS : -d
        /home/k0508/k050801/qeirreps/ver_5/qeirreps/reference/NaCdAs_nonsoc
        r1i6n16 10 omplace -nt 4 "/home/k0508/k050801/qe-6.6/bin/pw.x"

SGI MPT Placement option
--------------------------
omplace -nt 4

Node   MPI
------------
r1i6n16 10


     Program PWSCF v.6.6 starts on 29Nov2020 at 21:24:58 

     This program is part of the open-source Quantum ESPRESSO suite
     for quantum simulation of materials; please cite
         "P. Giannozzi et al., J. Phys.:Condens. Matter 21 395502 (2009);
         "P. Giannozzi et al., J. Phys.:Condens. Matter 29 465901 (2017);
          URL http://www.quantum-espresso.org", 
     in publications or presentations arising from this work. More details at
     http://www.quantum-espresso.org/quote

     Parallel version (MPI), running on    10 processors

     MPI processes distributed on     1 nodes
     R & G space division:  proc/nbgrp/npool/nimage =      10
     Fft bands division:     nmany     =       1
     Waiting for input...
     Reading input from standard input

     Current dimensions of program PWSCF are:
     Max number of different atomic species (ntypx) = 10
     Max number of k-points (npk) =  40000
     Max angular momentum in pseudopotentials (lmaxx) =  3

     Atomic positions and unit cell read from directory:
     /work/k0508/k050801/NaCdAs_ns/rep/NaCdAs.save/
     Atomic positions from file used, from input discarded
 

     Subspace diagonalization in iterative solution of the eigenvalue problem:
     a serial algorithm will be used

     Message from routine setup:
     using ibrav=0 with symmetry is DISCOURAGED, use correct ibrav instead
 
     Parallelization info
     --------------------
     sticks:   dense  smooth     PW     G-vecs:    dense   smooth      PW
     Min         393     393    107                25773    25773    3703
     Max         394     394    108                25776    25776    3706
     Sum        3935    3935   1077               257753   257753   37043
 


     bravais-lattice index     =            0
     lattice parameter (alat)  =      14.4554  a.u.
     unit-cell volume          =    1907.9148 (a.u.)^3
     number of atoms/cell      =           12
     number of atomic types    =            3
     number of electrons       =       176.00
     number of Kohn-Sham states=          106
     kinetic-energy cutoff     =     100.0000  Ry
     charge density cutoff     =     400.0000  Ry
     Exchange-correlation= PBE
                           (   1   4   3   4   0   0   0)

     celldm(1)=  14.455424  celldm(2)=   0.000000  celldm(3)=   0.000000
     celldm(4)=   0.000000  celldm(5)=   0.000000  celldm(6)=   0.000000

     crystal axes: (cart. coord. in units of alat)
               a(1) = (   1.000000   0.000000   0.000000 )  
               a(2) = (   0.000000   0.590742   0.000000 )  
               a(3) = (   0.000000   0.000000   1.069224 )  

     reciprocal axes: (cart. coord. in units 2 pi/alat)
               b(1) = (  1.000000  0.000000  0.000000 )  
               b(2) = (  0.000000  1.692787  0.000000 )  
               b(3) = (  0.000000  0.000000  0.935257 )  


     PseudoPot. # 1 for Na read from file:
     ../../pseudo/nonsoc/Na.upf
     MD5 check sum: ed5af011864af3d1529ce3b51bbccf87
     Pseudo is Norm-conserving, Zval =  9.0
     Generated using ONCVPSP code by D. R. Hamann
     Using radial grid of 1992 points,  4 beta functions with: 
                l(1) =   0
                l(2) =   0
                l(3) =   1
                l(4) =   1

     PseudoPot. # 2 for Cd read from file:
     ../../pseudo/nonsoc/Cd.upf
     MD5 check sum: e777d9872058904c317639d7175bcad4
     Pseudo is Norm-conserving + core correction, Zval = 20.0
     Generated using ONCVPSP code by D. R. Hamann
     Using radial grid of 1368 points,  6 beta functions with: 
                l(1) =   0
                l(2) =   0
                l(3) =   1
                l(4) =   1
                l(5) =   2
                l(6) =   2

     PseudoPot. # 3 for As read from file:
     ../../pseudo/nonsoc/As.upf
     MD5 check sum: bfe1a874457ce592347346129958e7cf
     Pseudo is Norm-conserving + core correction, Zval = 15.0
     Generated using ONCVPSP code by D. R. Hamann
     Using radial grid of 1358 points,  6 beta functions with: 
                l(1) =   0
                l(2) =   0
                l(3) =   1
                l(4) =   1
                l(5) =   2
                l(6) =   2

     atomic species   valence    mass     pseudopotential
        Na             9.00    22.98977     Na( 1.00)
        Cd            20.00   112.41100     Cd( 1.00)
        As            15.00    74.92160     As( 1.00)

      8 Sym. Ops., with inversion, found ( 6 have fractional translation)



   Cartesian axes

     site n.     atom                  positions (alat units)
         1           Na  tau(   1) = (   0.0184820   0.1476854   0.1854666  )
         2           Na  tau(   2) = (   0.9815180   0.4430562   0.8837578  )
         3           Na  tau(   3) = (   0.4815180   0.4430562   0.7200788  )
         4           Na  tau(   4) = (   0.5184820   0.1476854   0.3491456  )
         5           Cd  tau(   5) = (   0.1500210   0.1476854   0.6141764  )
         6           Cd  tau(   6) = (   0.8499790   0.4430562   0.4550480  )
         7           Cd  tau(   7) = (   0.3499790   0.4430562   0.0795642  )
         8           Cd  tau(   8) = (   0.6500210   0.1476854   0.9896602  )
         9           As  tau(   9) = (   0.2214520   0.4430562   0.4178369  )
        10           As  tau(  10) = (   0.7785480   0.1476854   0.6513876  )
        11           As  tau(  11) = (   0.2785480   0.1476854   0.9524491  )
        12           As  tau(  12) = (   0.7214520   0.4430562   0.1167753  )

     number of k points=     8  Methfessel-Paxton smearing, width (Ry)=  0.0100
                       cart. coord. in units 2pi/alat
        k(    1) = (   0.0000000   0.0000000   0.0000000), wk =   0.2500000
        k(    2) = (   0.5000000   0.0000000   0.0000000), wk =   0.2500000
        k(    3) = (   0.0000000   0.8463937   0.0000000), wk =   0.2500000
        k(    4) = (   0.0000000   0.0000000   0.4676287), wk =   0.2500000
        k(    5) = (   0.0000000   0.8463937   0.4676287), wk =   0.2500000
        k(    6) = (   0.5000000   0.0000000   0.4676287), wk =   0.2500000
        k(    7) = (   0.5000000   0.8463937   0.0000000), wk =   0.2500000
        k(    8) = (   0.5000000   0.8463937   0.4676287), wk =   0.2500000

     Dense  grid:   257753 G-vectors     FFT dimensions: (  96,  60, 100)

     Estimated max dynamical RAM per process >      50.98 MB

     Estimated total dynamical RAM >     509.77 MB

     The potential is recalculated from file :
     /work/k0508/k050801/NaCdAs_ns/rep/NaCdAs.save/charge-density

     Starting wfcs are   96 randomized atomic wfcs +   10 random wfcs

     Band Structure Calculation
     Davidson diagonalization with overlap

     ethr =  5.68E-12,  avg # of iterations = 36.9

     total cpu time spent up to now is       34.1 secs

     End of band structure calculation

          k = 0.0000 0.0000 0.0000 ( 32189 PWs)   bands (ev):

   -94.2256 -94.2256 -94.2254 -94.2254 -55.2852 -55.2852 -55.2833 -55.2833
   -55.2776 -55.2776 -55.2755 -55.2755 -55.2673 -55.2673 -55.2672 -55.2672
   -43.9433 -43.9431 -43.9424 -43.9422 -26.4950 -26.4950 -26.4949 -26.4949
   -26.4946 -26.4945 -26.4945 -26.4944 -26.4604 -26.4604 -26.4604 -26.4603
   -26.4413 -26.4413 -26.4412 -26.4412 -26.4370 -26.4370 -26.4369 -26.4369
   -15.8920 -15.8915 -15.8786 -15.8777 -15.8754 -15.8733 -15.8726 -15.8715
   -15.8677 -15.8650 -15.8645 -15.8635  -2.5073  -2.1325  -2.0597  -2.0308
    -0.3560  -0.2965  -0.2871  -0.2483  -0.2406  -0.2316  -0.2190  -0.1928
    -0.1412  -0.1082  -0.0824  -0.0449  -0.0433  -0.0419  -0.0003   0.1033
     0.1083   0.2887   0.3220   0.3506   3.4929   4.0595   5.1294   5.5986
     6.0248   6.5504   7.5663   7.6243   7.6765   7.9161   8.2666   8.4012
     8.4110   8.7694   9.6938  10.5297  11.4816  12.3148  12.4955  12.5754
    12.6442  12.9133  13.0146  13.4968  13.5548  13.9625  14.1854  14.4691
    14.5497  14.8204

          k = 0.5000 0.0000 0.0000 ( 32254 PWs)   bands (ev):

   -94.2256 -94.2256 -94.2254 -94.2254 -55.2852 -55.2852 -55.2833 -55.2833
   -55.2776 -55.2776 -55.2755 -55.2755 -55.2673 -55.2673 -55.2672 -55.2672
   -43.9432 -43.9432 -43.9423 -43.9423 -26.4950 -26.4950 -26.4949 -26.4949
   -26.4946 -26.4946 -26.4944 -26.4944 -26.4605 -26.4605 -26.4604 -26.4604
   -26.4413 -26.4413 -26.4412 -26.4412 -26.4370 -26.4370 -26.4369 -26.4369
   -15.8919 -15.8919 -15.8780 -15.8780 -15.8720 -15.8720 -15.8719 -15.8719
   -15.8689 -15.8689 -15.8640 -15.8640  -2.3202  -2.3202  -2.0281  -2.0281
    -0.2961  -0.2961  -0.2913  -0.2913  -0.2309  -0.2309  -0.1655  -0.1655
    -0.1418  -0.1418  -0.1221  -0.1221  -0.0200  -0.0200  -0.0011  -0.0011
     0.1043   0.1043   0.4168   0.4168   3.6389   3.6389   5.6336   5.6336
     6.9262   6.9262   7.1222   7.1222   7.8412   7.8412   8.1823   8.1823
     8.9875   8.9875   9.7448   9.7448  10.7950  10.7950  12.3253  12.3253
    12.5518  12.5518  12.6048  12.6048  14.3309  14.3309  14.7164  14.7164
    14.9331  14.9331

          k = 0.0000 0.8464 0.0000 ( 32224 PWs)   bands (ev):

   -94.2255 -94.2255 -94.2255 -94.2255 -55.2845 -55.2845 -55.2845 -55.2845
   -55.2764 -55.2764 -55.2764 -55.2764 -55.2672 -55.2672 -55.2672 -55.2672
   -43.9429 -43.9429 -43.9427 -43.9427 -26.4948 -26.4948 -26.4948 -26.4948
   -26.4946 -26.4946 -26.4946 -26.4946 -26.4604 -26.4604 -26.4604 -26.4604
   -26.4413 -26.4413 -26.4413 -26.4413 -26.4368 -26.4368 -26.4368 -26.4368
   -15.8872 -15.8872 -15.8870 -15.8870 -15.8746 -15.8746 -15.8689 -15.8689
   -15.8673 -15.8673 -15.8660 -15.8660  -2.0928  -2.0928  -1.9882  -1.9882
    -0.2345  -0.2345  -0.2157  -0.2157  -0.1881  -0.1881  -0.1330  -0.1330
    -0.0889  -0.0889  -0.0829  -0.0829  -0.0408  -0.0408   0.0249   0.0249
     0.2950   0.2950   0.5331   0.5331   3.9678   3.9678   4.4490   4.4490
     5.6126   5.6126   5.9504   5.9504   6.7876   6.7876   7.3546   7.3546
    10.1550  10.1550  10.9354  10.9354  12.0162  12.0162  12.1700  12.1700
    12.5153  12.5153  13.1951  13.1951  14.1886  14.1886  14.5164  14.5164
    15.4593  15.4593

          k = 0.0000 0.0000 0.4676 ( 32218 PWs)   bands (ev):

   -94.2256 -94.2256 -94.2254 -94.2254 -55.2852 -55.2852 -55.2833 -55.2833
   -55.2776 -55.2776 -55.2755 -55.2755 -55.2673 -55.2673 -55.2672 -55.2672
   -43.9433 -43.9433 -43.9423 -43.9423 -26.4950 -26.4950 -26.4949 -26.4949
   -26.4945 -26.4945 -26.4944 -26.4944 -26.4605 -26.4605 -26.4604 -26.4604
   -26.4413 -26.4413 -26.4412 -26.4412 -26.4370 -26.4370 -26.4369 -26.4369
   -15.8916 -15.8916 -15.8782 -15.8782 -15.8747 -15.8747 -15.8720 -15.8720
   -15.8661 -15.8661 -15.8639 -15.8639  -2.3099  -2.3099  -2.0572  -2.0572
    -0.2800  -0.2800  -0.2672  -0.2672  -0.2433  -0.2433  -0.1943  -0.1943
    -0.1278  -0.1278  -0.1159  -0.1159  -0.0389  -0.0389  -0.0104  -0.0104
     0.1057   0.1057   0.4463   0.4463   4.0943   4.0943   5.4239   5.4239
     5.9472   5.9472   7.0144   7.0144   7.7349   7.7349   7.9991   7.9991
     9.9258   9.9258  10.1265  10.1265  11.6654  11.6654  12.4978  12.4978
    13.0737  13.0737  13.2181  13.2181  13.5214  13.5214  14.1697  14.1697
    14.3009  14.3009

          k = 0.0000 0.8464 0.4676 ( 32168 PWs)   bands (ev):

   -94.2255 -94.2255 -94.2255 -94.2255 -55.2845 -55.2845 -55.2845 -55.2845
   -55.2764 -55.2764 -55.2764 -55.2764 -55.2672 -55.2672 -55.2672 -55.2672
   -43.9429 -43.9429 -43.9427 -43.9427 -26.4948 -26.4948 -26.4948 -26.4948
   -26.4946 -26.4946 -26.4946 -26.4946 -26.4604 -26.4604 -26.4604 -26.4604
   -26.4413 -26.4413 -26.4413 -26.4413 -26.4368 -26.4368 -26.4368 -26.4368
   -15.8874 -15.8874 -15.8869 -15.8869 -15.8746 -15.8746 -15.8684 -15.8684
   -15.8678 -15.8678 -15.8658 -15.8658  -2.0910  -2.0910  -1.9867  -1.9867
    -0.2227  -0.2227  -0.2139  -0.2139  -0.2015  -0.2015  -0.1299  -0.1299
    -0.1025  -0.1025  -0.0739  -0.0739  -0.0058  -0.0058  -0.0033  -0.0033
     0.3411   0.3411   0.4852   0.4852   3.6143   3.6143   4.5716   4.5716
     5.8837   5.8837   6.0324   6.0324   7.3730   7.3730   7.4236   7.4236
     9.3653   9.3653   9.7438   9.7438  11.3836  11.3836  12.6881  12.6881
    13.2255  13.2255  13.7549  13.7549  14.0959  14.0959  14.8195  14.8195
    15.7491  15.7491

          k = 0.5000 0.0000 0.4676 ( 32308 PWs)   bands (ev):

   -94.2256 -94.2256 -94.2254 -94.2254 -55.2852 -55.2852 -55.2833 -55.2833
   -55.2776 -55.2776 -55.2755 -55.2755 -55.2673 -55.2673 -55.2672 -55.2672
   -43.9432 -43.9432 -43.9423 -43.9423 -26.4950 -26.4950 -26.4949 -26.4949
   -26.4946 -26.4946 -26.4944 -26.4944 -26.4604 -26.4604 -26.4604 -26.4604
   -26.4413 -26.4413 -26.4412 -26.4412 -26.4370 -26.4370 -26.4369 -26.4369
   -15.8917 -15.8917 -15.8784 -15.8784 -15.8720 -15.8720 -15.8714 -15.8714
   -15.8691 -15.8691 -15.8640 -15.8640  -2.2283  -2.2283  -2.1189  -2.1189
    -0.3003  -0.3003  -0.2711  -0.2711  -0.2550  -0.2550  -0.2098  -0.2098
    -0.1250  -0.1250  -0.0601  -0.0601  -0.0185  -0.0185   0.0637   0.0637
     0.1053   0.1053   0.2248   0.2248   4.4662   4.4662   4.9254   4.9254
     6.6351   6.6351   7.1116   7.1116   7.5083   7.5083   7.8549   7.8549
    10.0098  10.0098  10.1128  10.1128  11.0491  11.0491  11.8711  11.8711
    12.7492  12.7492  13.2698  13.2698  13.5665  13.5665  13.6662  13.6662
    15.3379  15.3379

          k = 0.5000 0.8464 0.0000 ( 32240 PWs)   bands (ev):

   -94.2255 -94.2255 -94.2255 -94.2255 -55.2845 -55.2845 -55.2845 -55.2845
   -55.2764 -55.2764 -55.2764 -55.2764 -55.2672 -55.2672 -55.2672 -55.2672
   -43.9428 -43.9428 -43.9428 -43.9428 -26.4948 -26.4948 -26.4948 -26.4948
   -26.4946 -26.4946 -26.4946 -26.4946 -26.4604 -26.4604 -26.4604 -26.4604
   -26.4413 -26.4413 -26.4413 -26.4413 -26.4368 -26.4368 -26.4368 -26.4368
   -15.8872 -15.8872 -15.8872 -15.8872 -15.8707 -15.8707 -15.8707 -15.8707
   -15.8676 -15.8676 -15.8676 -15.8676  -2.0312  -2.0312  -2.0312  -2.0312
    -0.2281  -0.2281  -0.2281  -0.2281  -0.1555  -0.1555  -0.1555  -0.1555
    -0.0896  -0.0896  -0.0896  -0.0896  -0.0134  -0.0134  -0.0134  -0.0134
     0.3884   0.3884   0.3884   0.3884   4.1219   4.1219   4.1219   4.1219
     5.9092   5.9092   5.9092   5.9092   7.2519   7.2519   7.2519   7.2519
    10.6978  10.6978  10.6978  10.6978  11.4740  11.4740  11.4740  11.4740
    12.5124  12.5124  12.5124  12.5124  13.9082  13.9082  13.9082  13.9082
    16.3696  16.3696

          k = 0.5000 0.8464 0.4676 ( 32152 PWs)   bands (ev):

   -94.2255 -94.2255 -94.2255 -94.2255 -55.2845 -55.2845 -55.2845 -55.2845
   -55.2764 -55.2764 -55.2764 -55.2764 -55.2672 -55.2672 -55.2672 -55.2672
   -43.9428 -43.9428 -43.9428 -43.9428 -26.4948 -26.4948 -26.4948 -26.4948
   -26.4946 -26.4946 -26.4946 -26.4946 -26.4604 -26.4604 -26.4604 -26.4604
   -26.4413 -26.4413 -26.4413 -26.4413 -26.4368 -26.4368 -26.4368 -26.4368
   -15.8873 -15.8873 -15.8873 -15.8873 -15.8706 -15.8706 -15.8706 -15.8706
   -15.8676 -15.8676 -15.8676 -15.8676  -2.0299  -2.0299  -2.0299  -2.0299
    -0.2200  -0.2200  -0.2200  -0.2200  -0.1627  -0.1627  -0.1627  -0.1627
    -0.0908  -0.0908  -0.0908  -0.0908  -0.0082  -0.0082  -0.0082  -0.0082
     0.3910   0.3910   0.3910   0.3910   3.8871   3.8871   3.8871   3.8871
     6.6975   6.6975   6.6975   6.6975   7.0604   7.0604   7.0604   7.0604
     9.6324   9.6324   9.6324   9.6324  11.0598  11.0598  11.0598  11.0598
    13.9070  13.9070  13.9070  13.9070  14.3512  14.3512  14.3512  14.3512
    16.0461  16.0461

     Writing output data file /work/k0508/k050801/NaCdAs_ns/rep/NaCdAs.save/
 
     init_run     :      0.37s CPU      0.39s WALL (       1 calls)
     electrons    :     32.67s CPU     32.98s WALL (       1 calls)

     Called by init_run:
     wfcinit      :      0.00s CPU      0.00s WALL (       1 calls)
     potinit      :      0.03s CPU      0.04s WALL (       1 calls)
     hinit0       :      0.29s CPU      0.30s WALL (       1 calls)

     Called by electrons:
     c_bands      :     32.67s CPU     32.98s WALL (       1 calls)
     v_of_rho     :      0.03s CPU      0.03s WALL (       1 calls)

     Called by c_bands:
     init_us_2    :      0.02s CPU      0.02s WALL (       8 calls)
     cegterg      :     31.13s CPU     31.37s WALL (      17 calls)

     Called by *egterg:
     cdiaghg      :      3.45s CPU      3.46s WALL (     303 calls)
     h_psi        :     20.15s CPU     20.39s WALL (     320 calls)
     g_psi        :      0.13s CPU      0.13s WALL (     295 calls)

     Called by h_psi:
     h_psi:calbec :      1.48s CPU      1.49s WALL (     320 calls)
     vloc_psi     :     16.98s CPU     17.21s WALL (     320 calls)
     add_vuspsi   :      1.56s CPU      1.57s WALL (     320 calls)

     General routines
     calbec       :      1.48s CPU      1.49s WALL (     320 calls)
     fft          :      0.03s CPU      0.03s WALL (      11 calls)
     fftw         :     15.03s CPU     15.23s WALL (   30916 calls)
     davcio       :      0.00s CPU      0.06s WALL (      16 calls)
 
     Parallel routines
     fft_scatt_xy :      2.50s CPU      2.53s WALL (   30927 calls)
     fft_scatt_yz :      4.08s CPU      4.14s WALL (   30927 calls)
 
     PWSCF        :     33.97s CPU     34.83s WALL

 
   This run was terminated on:  21:25:33  29Nov2020            

=------------------------------------------------------------------------------=
   JOB DONE.
=------------------------------------------------------------------------------=
