mpijob CMD    : mpirun -f /tmp/mpiexec.params.k050801.25895
mpijob PARAMS : -d
        /home/k0508/k050801/qeirreps/ver_5/qeirreps/reference/NaCdAs_nonsoc
        r1i6n16 10 omplace -nt 4 "/home/k0508/k050801/qe-6.6/bin/bands.x"

SGI MPT Placement option
--------------------------
omplace -nt 4

Node   MPI
------------
r1i6n16 10


     Program BANDS v.6.6 starts on 29Nov2020 at 22:17:20 

     This program is part of the open-source Quantum ESPRESSO suite
     for quantum simulation of materials; please cite
         "P. Giannozzi et al., J. Phys.:Condens. Matter 21 395502 (2009);
         "P. Giannozzi et al., J. Phys.:Condens. Matter 29 465901 (2017);
          URL http://www.quantum-espresso.org", 
     in publications or presentations arising from this work. More details at
     http://www.quantum-espresso.org/quote

     Parallel version (MPI), running on    10 processors

     MPI processes distributed on     1 nodes
     R & G space division:  proc/nbgrp/npool/nimage =      10
     Fft bands division:     nmany     =       1

     Reading xml data from directory:

     /work/k0508/k050801/NaCdAs_ns/band/NaCdAs.save/

     IMPORTANT: XC functional enforced from input :
     Exchange-correlation= PBE
                           (   1   4   3   4   0   0   0)
     Any further DFT definition will be discarded
     Please, verify this is what you really want

 
     Parallelization info
     --------------------
     sticks:   dense  smooth     PW     G-vecs:    dense   smooth      PW
     Min         393     393    107                25773    25773    3703
     Max         394     394    108                25776    25776    3706
     Sum        3935    3935   1077               257753   257753   37043
 
     Reading collected, re-writing distributed wavefunctions
     high-symmetry point:  0.0000 0.0000 0.0000   x coordinate   0.0000
     high-symmetry point:  0.5000 0.0000 0.0000   x coordinate   0.5000
     high-symmetry point:  0.5000 0.8464 0.0000   x coordinate   1.3464
     high-symmetry point:  0.0000 0.8464 0.0000   x coordinate   1.8464
     high-symmetry point:  0.0000 0.0000 0.0000   x coordinate   2.6928
     high-symmetry point:  0.0000 0.0000 0.4676   x coordinate   3.1604
     high-symmetry point:  0.5000 0.0000 0.4676   x coordinate   3.6604
     high-symmetry point:  0.5000 0.8464 0.4676   x coordinate   4.5068
     high-symmetry point:  0.0000 0.8464 0.4676   x coordinate   5.0068
     high-symmetry point:  0.0000 0.0000 0.4676   x coordinate   5.8532
     high-symmetry point:  0.5000 0.0000 0.0000   x coordinate   5.8532
     high-symmetry point:  0.5000 0.0000 0.4676   x coordinate   6.3208
     high-symmetry point:  0.0000 0.8464 0.0000   x coordinate   6.3208
     high-symmetry point:  0.0000 0.8464 0.4676   x coordinate   6.7885
     high-symmetry point:  0.5000 0.8464 0.0000   x coordinate   6.7885
     high-symmetry point:  0.5000 0.8464 0.4676   x coordinate   7.2561

     Plottable bands (eV) written to file NaCdAs.band.gnu
     Bands written to file NaCdAs.band

 **************************************************************************

                    xk=(   0.00000,   0.00000,   0.00000  )

     point group D_2h (mmm) 
     there are  8 classes
     the character table:

       E     C2    C2'   C2''  i     s_v   s_v'  s_v''
A_g    1.00  1.00  1.00  1.00  1.00  1.00  1.00  1.00
B_1g   1.00  1.00 -1.00 -1.00  1.00  1.00 -1.00 -1.00
B_2g   1.00 -1.00  1.00 -1.00  1.00 -1.00  1.00 -1.00
B_3g   1.00 -1.00 -1.00  1.00  1.00 -1.00 -1.00  1.00
A_u    1.00  1.00  1.00  1.00 -1.00 -1.00 -1.00 -1.00
B_1u   1.00  1.00 -1.00 -1.00 -1.00 -1.00  1.00  1.00
B_2u   1.00 -1.00  1.00 -1.00 -1.00  1.00 -1.00  1.00
B_3u   1.00 -1.00 -1.00  1.00 -1.00  1.00  1.00 -1.00

     the symmetry operations in each class and the name of the first element:

     E        1
                                                                 
     C2       2
                                                                 
     C2'      4
                                                                 
     C2''     3
                                                                 
     i        5
                                                                 
     s_v      6
                                                                 
     s_v'     8
                                                                 
     s_v''    7
                                                                 

     Band symmetry, D_2h (mmm)  point group:

     e(  1 -  2) =    -94.22560  eV     2   --> A_g            
     e(  1 -  2) =    -94.22560  eV     2   --> B_3g           
     e(  3 -  4) =    -94.22543  eV     2   --> B_1u           
     e(  3 -  4) =    -94.22543  eV     2   --> B_2u           
     e(  5 -  6) =    -55.28520  eV     2   --> B_1g           
     e(  5 -  6) =    -55.28520  eV     2   --> B_2g           
     e(  7 -  8) =    -55.28329  eV     2   --> A_u            
     e(  7 -  8) =    -55.28329  eV     2   --> B_3u           
     e(  9 - 10) =    -55.27765  eV     2   --> A_g            
     e(  9 - 10) =    -55.27765  eV     2   --> B_3g           
     e( 11 - 12) =    -55.27550  eV     2   --> B_1u           
     e( 11 - 12) =    -55.27550  eV     2   --> B_2u           
     e( 13 - 14) =    -55.26731  eV     2   --> A_g            
     e( 13 - 14) =    -55.26731  eV     2   --> B_3g           
     e( 15 - 16) =    -55.26717  eV     2   --> B_1u           
     e( 15 - 16) =    -55.26717  eV     2   --> B_2u           
     e( 17 - 17) =    -43.94335  eV     1   --> A_g            
     e( 18 - 18) =    -43.94314  eV     1   --> B_3g           
     e( 19 - 19) =    -43.94244  eV     1   --> B_2u           
     e( 20 - 20) =    -43.94224  eV     1   --> B_1u           
     e( 21 - 24) =    -26.49499  eV     4   --> A_g            
     e( 21 - 24) =    -26.49499  eV     4   --> B_3g           
     e( 21 - 24) =    -26.49499  eV     4   --> B_1u           
     e( 21 - 24) =    -26.49499  eV     4   --> B_2u           
     e( 25 - 28) =    -26.49455  eV     4   --> B_1g           
     e( 25 - 28) =    -26.49455  eV     4   --> B_2g           
     e( 25 - 28) =    -26.49455  eV     4   --> A_u            
     e( 25 - 28) =    -26.49455  eV     4   --> B_3u           
     e( 29 - 31) =    -26.46045  eV     3   --> A_g            
     e( 29 - 31) =    -26.46045  eV     3   --> B_3g           
     e( 29 - 31) =    -26.46045  eV     3   --> B_1u           
     e( 32 - 32) =    -26.46030  eV     1   --> B_2u           
     e( 33 - 36) =    -26.44134  eV     4   --> B_1g           
     e( 33 - 36) =    -26.44134  eV     4   --> B_2g           
     e( 33 - 36) =    -26.44134  eV     4   --> A_u            
     e( 33 - 36) =    -26.44134  eV     4   --> B_3u           
     e( 37 - 40) =    -26.43699  eV     4   --> A_g            
     e( 37 - 40) =    -26.43699  eV     4   --> B_3g           
     e( 37 - 40) =    -26.43699  eV     4   --> B_1u           
     e( 37 - 40) =    -26.43699  eV     4   --> B_2u           
     e( 41 - 41) =    -15.89202  eV     1   --> B_3g           
     e( 42 - 42) =    -15.89155  eV     1   --> A_g            
     e( 43 - 43) =    -15.87865  eV     1   --> B_1u           
     e( 44 - 44) =    -15.87769  eV     1   --> B_2u           
     e( 45 - 45) =    -15.87539  eV     1   --> B_1u           
     e( 46 - 46) =    -15.87335  eV     1   --> B_3g           
     e( 47 - 47) =    -15.87255  eV     1   --> B_1g           
     e( 48 - 48) =    -15.87145  eV     1   --> B_2g           
     e( 49 - 49) =    -15.86769  eV     1   --> B_2u           
     e( 50 - 50) =    -15.86501  eV     1   --> A_g            
     e( 51 - 51) =    -15.86448  eV     1   --> B_3u           
     e( 52 - 52) =    -15.86347  eV     1   --> A_u            
     e( 53 - 53) =     -2.50735  eV     1   --> A_g            
     e( 54 - 54) =     -2.13250  eV     1   --> B_1u           
     e( 55 - 55) =     -2.05968  eV     1   --> B_3g           
     e( 56 - 56) =     -2.03077  eV     1   --> B_2u           
     e( 57 - 57) =     -0.35601  eV     1   --> B_1u           
     e( 58 - 58) =     -0.29645  eV     1   --> B_2g           
     e( 59 - 59) =     -0.28714  eV     1   --> B_3u           
     e( 60 - 60) =     -0.24829  eV     1   --> B_1g           
     e( 61 - 61) =     -0.24063  eV     1   --> B_2u           
     e( 62 - 62) =     -0.23164  eV     1   --> A_g            
     e( 63 - 63) =     -0.21896  eV     1   --> A_u            
     e( 64 - 64) =     -0.19279  eV     1   --> B_3g           
     e( 65 - 65) =     -0.14123  eV     1   --> B_2g           
     e( 66 - 66) =     -0.10823  eV     1   --> B_1g           
     e( 67 - 67) =     -0.08243  eV     1   --> A_g            
     e( 68 - 68) =     -0.04490  eV     1   --> B_3g           
     e( 69 - 69) =     -0.04329  eV     1   --> B_1u           
     e( 70 - 70) =     -0.04185  eV     1   --> A_g            
     e( 71 - 71) =     -0.00032  eV     1   --> B_2u           
     e( 72 - 72) =      0.10329  eV     1   --> A_u            
     e( 73 - 73) =      0.10828  eV     1   --> B_3u           
     e( 74 - 74) =      0.28875  eV     1   --> B_3g           
     e( 75 - 75) =      0.32199  eV     1   --> B_2u           
     e( 76 - 76) =      0.35063  eV     1   --> B_1u           
     e( 77 - 77) =      3.49291  eV     1   --> B_3g           
     e( 78 - 78) =      4.05949  eV     1   --> B_2u           
     e( 79 - 79) =      5.12945  eV     1   --> B_3g           
     e( 80 - 80) =      5.59862  eV     1   --> A_g            
     e( 81 - 81) =      6.02477  eV     1   --> B_1u           
     e( 82 - 82) =      6.55037  eV     1   --> B_1g           
     e( 83 - 83) =      7.56626  eV     1   --> A_g            
     e( 84 - 84) =      7.62433  eV     1   --> A_u            
     e( 85 - 85) =      7.67648  eV     1   --> B_2g           
     e( 86 - 86) =      7.91610  eV     1   --> A_g            
     e( 87 - 87) =      8.26664  eV     1   --> B_1u           
     e( 88 - 88) =      8.40124  eV     1   --> B_3u           
     e( 89 - 89) =      8.41099  eV     1   --> B_2u           
     e( 90 - 90) =      8.76945  eV     1   --> B_1u           
     e( 91 - 91) =      9.69382  eV     1   --> B_2u           
     e( 92 - 92) =     10.52972  eV     1   --> B_3g           
     e( 93 - 93) =     11.48163  eV     1   --> B_1u           
     e( 94 - 94) =     12.31475  eV     1   --> B_2g           
     e( 95 - 95) =     12.49548  eV     1   --> A_g            
     e( 96 - 96) =     12.57537  eV     1   --> B_3u           
     e( 97 - 97) =     12.64424  eV     1   --> B_2u           
     e( 98 - 98) =     12.91334  eV     1   --> A_g            
     e( 99 - 99) =     13.01457  eV     1   --> B_1u           
     e(100 -100) =     13.49680  eV     1   --> A_g            
     e(101 -101) =     13.55481  eV     1   --> B_3g           
     e(102 -102) =     13.96248  eV     1   --> B_3g           
     e(103 -103) =     14.18542  eV     1   --> B_2g           
     e(104 -104) =     14.46905  eV     1   --> B_3g           
     e(105 -105) =     14.54969  eV     1   --> A_g            
     e(106 -106) =     14.82038  eV     1   --> B_1u           

 **************************************************************************

 **************************************************************************

                    xk=(   0.00833,   0.00000,   0.00000  )

     point group C_2v (mm2) 
     there are  4 classes
     the character table:

       E     C2    s_v   s_v' 
A_1    1.00  1.00  1.00  1.00
A_2    1.00  1.00 -1.00 -1.00
B_1    1.00 -1.00  1.00 -1.00
B_2    1.00 -1.00 -1.00  1.00

     the symmetry operations in each class and the name of the first element:

     E        1
                                                                 
     C2       2
                                                                 
     s_v      4
                                                                 
     s_v'     3
                                                                 

     Band symmetry, C_2v (mm2)  point group:

     e(  1 -  2) =    -94.22560  eV     2   --> A_1  D_1  S_1  
     e(  1 -  2) =    -94.22560  eV     2   --> B_1  D_3  S_3  
     e(  3 -  4) =    -94.22543  eV     2   --> A_1  D_1  S_1  
     e(  3 -  4) =    -94.22543  eV     2   --> B_1  D_3  S_3  
     e(  5 -  6) =    -55.28520  eV     2   --> A_2  D_2  S_2  
     e(  5 -  6) =    -55.28520  eV     2   --> B_2  D_4  S_4  
     e(  7 -  8) =    -55.28329  eV     2   --> A_2  D_2  S_2  
     e(  7 -  8) =    -55.28329  eV     2   --> B_2  D_4  S_4  
     e(  9 - 10) =    -55.27765  eV     2   --> A_1  D_1  S_1  
     e(  9 - 10) =    -55.27765  eV     2   --> B_1  D_3  S_3  
     e( 11 - 12) =    -55.27550  eV     2   --> A_1  D_1  S_1  
     e( 11 - 12) =    -55.27550  eV     2   --> B_1  D_3  S_3  
     e( 13 - 14) =    -55.26730  eV     2   --> A_1  D_1  S_1  
     e( 13 - 14) =    -55.26730  eV     2   --> B_1  D_3  S_3  
     e( 15 - 16) =    -55.26717  eV     2   --> A_1  D_1  S_1  
     e( 15 - 16) =    -55.26717  eV     2   --> B_1  D_3  S_3  
     e( 17 - 17) =    -43.94335  eV     1   --> A_1  D_1  S_1  
     e( 18 - 18) =    -43.94314  eV     1   --> B_1  D_3  S_3  
     e( 19 - 19) =    -43.94244  eV     1   --> A_1  D_1  S_1  
     e( 20 - 20) =    -43.94224  eV     1   --> B_1  D_3  S_3  
     e( 21 - 24) =    -26.49499  eV     4   -->   2 A_1  D_1  S_1  
     e( 21 - 24) =    -26.49499  eV     4   -->   2 B_1  D_3  S_3  
     e( 25 - 28) =    -26.49455  eV     4   -->   2 A_2  D_2  S_2  
     e( 25 - 28) =    -26.49455  eV     4   -->   2 B_2  D_4  S_4  
     e( 29 - 31) =    -26.46045  eV     3   --> A_1  D_1  S_1  
     e( 29 - 31) =    -26.46045  eV     3   -->   2 B_1  D_3  S_3  
     e( 32 - 32) =    -26.46030  eV     1   --> A_1  D_1  S_1  
     e( 33 - 36) =    -26.44134  eV     4   -->   2 A_2  D_2  S_2  
     e( 33 - 36) =    -26.44134  eV     4   -->   2 B_2  D_4  S_4  
     e( 37 - 40) =    -26.43699  eV     4   -->   2 A_1  D_1  S_1  
     e( 37 - 40) =    -26.43699  eV     4   -->   2 B_1  D_3  S_3  
     e( 41 - 41) =    -15.89202  eV     1   --> B_1  D_3  S_3  
     e( 42 - 42) =    -15.89155  eV     1   --> A_1  D_1  S_1  
     e( 43 - 43) =    -15.87865  eV     1   --> B_1  D_3  S_3  
     e( 44 - 44) =    -15.87769  eV     1   --> A_1  D_1  S_1  
     e( 45 - 45) =    -15.87539  eV     1   --> B_1  D_3  S_3  
     e( 46 - 46) =    -15.87335  eV     1   --> B_1  D_3  S_3  
     e( 47 - 47) =    -15.87255  eV     1   --> B_2  D_4  S_4  
     e( 48 - 48) =    -15.87145  eV     1   --> A_2  D_2  S_2  
     e( 49 - 49) =    -15.86769  eV     1   --> A_1  D_1  S_1  
     e( 50 - 50) =    -15.86501  eV     1   --> A_1  D_1  S_1  
     e( 51 - 51) =    -15.86448  eV     1   --> B_2  D_4  S_4  
     e( 52 - 52) =    -15.86347  eV     1   --> A_2  D_2  S_2  
     e( 53 - 53) =     -2.50728  eV     1   --> A_1  D_1  S_1  
     e( 54 - 54) =     -2.13257  eV     1   --> B_1  D_3  S_3  
     e( 55 - 55) =     -2.05964  eV     1   --> B_1  D_3  S_3  
     e( 56 - 56) =     -2.03076  eV     1   --> A_1  D_1  S_1  
     e( 57 - 57) =     -0.35599  eV     1   --> B_1  D_3  S_3  
     e( 58 - 58) =     -0.29645  eV     1   --> A_2  D_2  S_2  
     e( 59 - 59) =     -0.28715  eV     1   --> B_2  D_4  S_4  
     e( 60 - 60) =     -0.24828  eV     1   --> B_2  D_4  S_4  
     e( 61 - 61) =     -0.24061  eV     1   --> A_1  D_1  S_1  
     e( 62 - 62) =     -0.23164  eV     1   --> A_1  D_1  S_1  
     e( 63 - 63) =     -0.21896  eV     1   --> A_2  D_2  S_2  
     e( 64 - 64) =     -0.19278  eV     1   --> B_1  D_3  S_3  
     e( 65 - 65) =     -0.14122  eV     1   --> A_2  D_2  S_2  
     e( 66 - 66) =     -0.10824  eV     1   --> B_2  D_4  S_4  
     e( 67 - 67) =     -0.08247  eV     1   --> A_1  D_1  S_1  
     e( 68 - 68) =     -0.04532  eV     1   --> B_1  D_3  S_3  
     e( 69 - 69) =     -0.04288  eV     1   --> B_1  D_3  S_3  
     e( 70 - 70) =     -0.04187  eV     1   --> A_1  D_1  S_1  
     e( 71 - 71) =     -0.00030  eV     1   --> A_1  D_1  S_1  
     e( 72 - 72) =      0.10329  eV     1   --> A_2  D_2  S_2  
     e( 73 - 73) =      0.10828  eV     1   --> B_2  D_4  S_4  
     e( 74 - 74) =      0.28820  eV     1   --> B_1  D_3  S_3  
     e( 75 - 75) =      0.32204  eV     1   --> A_1  D_1  S_1  
     e( 76 - 76) =      0.35105  eV     1   --> B_1  D_3  S_3  
     e( 77 - 77) =      3.49302  eV     1   --> B_1  D_3  S_3  
     e( 78 - 78) =      4.05915  eV     1   --> A_1  D_1  S_1  
     e( 79 - 79) =      5.12927  eV     1   --> B_1  D_3  S_3  
     e( 80 - 80) =      5.59915  eV     1   --> A_1  D_1  S_1  
     e( 81 - 81) =      6.02556  eV     1   --> B_1  D_3  S_3  
     e( 82 - 82) =      6.55048  eV     1   --> B_2  D_4  S_4  
     e( 83 - 83) =      7.56629  eV     1   --> A_1  D_1  S_1  
     e( 84 - 84) =      7.62211  eV     1   --> A_2  D_2  S_2  
     e( 85 - 85) =      7.67862  eV     1   --> A_2  D_2  S_2  
     e( 86 - 86) =      7.91391  eV     1   --> A_1  D_1  S_1  
     e( 87 - 87) =      8.26646  eV     1   --> B_1  D_3  S_3  
     e( 88 - 88) =      8.40117  eV     1   --> B_2  D_4  S_4  
     e( 89 - 89) =      8.41319  eV     1   --> A_1  D_1  S_1  
     e( 90 - 90) =      8.76955  eV     1   --> B_1  D_3  S_3  
     e( 91 - 91) =      9.69394  eV     1   --> A_1  D_1  S_1  
     e( 92 - 92) =     10.52878  eV     1   --> B_1  D_3  S_3  
     e( 93 - 93) =     11.48241  eV     1   --> B_1  D_3  S_3  
     e( 94 - 94) =     12.31479  eV     1   --> A_2  D_2  S_2  
     e( 95 - 95) =     12.49333  eV     1   --> A_1  D_1  S_1  
     e( 96 - 96) =     12.57516  eV     1   --> B_2  D_4  S_4  
     e( 97 - 97) =     12.63265  eV     1   --> A_1  D_1  S_1  
     e( 98 - 98) =     12.92643  eV     1   --> A_1  D_1  S_1  
     e( 99 - 99) =     13.01241  eV     1   --> B_1  D_3  S_3  
     e(100 -100) =     13.49622  eV     1   --> A_1  D_1  S_1  
     e(101 -101) =     13.55500  eV     1   --> B_1  D_3  S_3  
     e(102 -102) =     13.96333  eV     1   --> B_1  D_3  S_3  
     e(103 -103) =     14.18517  eV     1   --> A_2  D_2  S_2  
     e(104 -104) =     14.46539  eV     1   --> B_1  D_3  S_3  
     e(105 -105) =     14.54949  eV     1   --> A_1  D_1  S_1  
     e(106 -106) =     14.82556  eV     1   --> B_1  D_3  S_3  

 **************************************************************************

 **************************************************************************

                    xk=(   0.01667,   0.00000,   0.00000  )

     Band symmetry, C_2v (mm2)  point group:

     e(  1 -  2) =    -94.22560  eV     2   --> A_1  D_1  S_1  
     e(  1 -  2) =    -94.22560  eV     2   --> B_1  D_3  S_3  
     e(  3 -  4) =    -94.22543  eV     2   --> A_1  D_1  S_1  
     e(  3 -  4) =    -94.22543  eV     2   --> B_1  D_3  S_3  
     e(  5 -  6) =    -55.28520  eV     2   --> A_2  D_2  S_2  
     e(  5 -  6) =    -55.28520  eV     2   --> B_2  D_4  S_4  
     e(  7 -  8) =    -55.28330  eV     2   --> A_2  D_2  S_2  
     e(  7 -  8) =    -55.28330  eV     2   --> B_2  D_4  S_4  
     e(  9 - 10) =    -55.27765  eV     2   --> A_1  D_1  S_1  
     e(  9 - 10) =    -55.27765  eV     2   --> B_1  D_3  S_3  
     e( 11 - 12) =    -55.27550  eV     2   --> A_1  D_1  S_1  
     e( 11 - 12) =    -55.27550  eV     2   --> B_1  D_3  S_3  
     e( 13 - 14) =    -55.26730  eV     2   --> A_1  D_1  S_1  
     e( 13 - 14) =    -55.26730  eV     2   --> B_1  D_3  S_3  
     e( 15 - 16) =    -55.26717  eV     2   --> A_1  D_1  S_1  
     e( 15 - 16) =    -55.26717  eV     2   --> B_1  D_3  S_3  
     e( 17 - 17) =    -43.94335  eV     1   --> A_1  D_1  S_1  
     e( 18 - 18) =    -43.94314  eV     1   --> B_1  D_3  S_3  
     e( 19 - 19) =    -43.94244  eV     1   --> A_1  D_1  S_1  
     e( 20 - 20) =    -43.94224  eV     1   --> B_1  D_3  S_3  
     e( 21 - 24) =    -26.49499  eV     4   -->   2 A_1  D_1  S_1  
     e( 21 - 24) =    -26.49499  eV     4   -->   2 B_1  D_3  S_3  
     e( 25 - 28) =    -26.49455  eV     4   -->   2 A_2  D_2  S_2  
     e( 25 - 28) =    -26.49455  eV     4   -->   2 B_2  D_4  S_4  
     e( 29 - 31) =    -26.46045  eV     3   --> A_1  D_1  S_1  
     e( 29 - 31) =    -26.46045  eV     3   -->   2 B_1  D_3  S_3  
     e( 32 - 32) =    -26.46030  eV     1   --> A_1  D_1  S_1  
     e( 33 - 36) =    -26.44134  eV     4   -->   2 A_2  D_2  S_2  
     e( 33 - 36) =    -26.44134  eV     4   -->   2 B_2  D_4  S_4  
     e( 37 - 40) =    -26.43699  eV     4   -->   2 A_1  D_1  S_1  
     e( 37 - 40) =    -26.43699  eV     4   -->   2 B_1  D_3  S_3  
     e( 41 - 41) =    -15.89202  eV     1   --> B_1  D_3  S_3  
     e( 42 - 42) =    -15.89155  eV     1   --> A_1  D_1  S_1  
     e( 43 - 43) =    -15.87864  eV     1   --> B_1  D_3  S_3  
     e( 44 - 44) =    -15.87769  eV     1   --> A_1  D_1  S_1  
     e( 45 - 45) =    -15.87539  eV     1   --> B_1  D_3  S_3  
     e( 46 - 46) =    -15.87334  eV     1   --> B_1  D_3  S_3  
     e( 47 - 47) =    -15.87255  eV     1   --> B_2  D_4  S_4  
     e( 48 - 48) =    -15.87145  eV     1   --> A_2  D_2  S_2  
     e( 49 - 49) =    -15.86769  eV     1   --> A_1  D_1  S_1  
     e( 50 - 50) =    -15.86502  eV     1   --> A_1  D_1  S_1  
     e( 51 - 51) =    -15.86447  eV     1   --> B_2  D_4  S_4  
     e( 52 - 52) =    -15.86347  eV     1   --> A_2  D_2  S_2  
     e( 53 - 53) =     -2.50709  eV     1   --> A_1  D_1  S_1  
     e( 54 - 54) =     -2.13281  eV     1   --> B_1  D_3  S_3  
     e( 55 - 55) =     -2.05955  eV     1   --> B_1  D_3  S_3  
     e( 56 - 56) =     -2.03075  eV     1   --> A_1  D_1  S_1  
     e( 57 - 57) =     -0.35593  eV     1   --> B_1  D_3  S_3  
     e( 58 - 58) =     -0.29645  eV     1   --> A_2  D_2  S_2  
     e( 59 - 59) =     -0.28717  eV     1   --> B_2  D_4  S_4  
     e( 60 - 60) =     -0.24826  eV     1   --> B_2  D_4  S_4  
     e( 61 - 61) =     -0.24057  eV     1   --> A_1  D_1  S_1  
     e( 62 - 62) =     -0.23167  eV     1   --> A_1  D_1  S_1  
     e( 63 - 63) =     -0.21898  eV     1   --> A_2  D_2  S_2  
     e( 64 - 64) =     -0.19277  eV     1   --> B_1  D_3  S_3  
     e( 65 - 65) =     -0.14119  eV     1   --> A_2  D_2  S_2  
     e( 66 - 66) =     -0.10825  eV     1   --> B_2  D_4  S_4  
     e( 67 - 67) =     -0.08260  eV     1   --> A_1  D_1  S_1  
     e( 68 - 68) =     -0.04611  eV     1   --> B_1  D_3  S_3  
     e( 69 - 69) =     -0.04210  eV     1   --> B_1  D_3  S_3  
     e( 70 - 70) =     -0.04192  eV     1   --> A_1  D_1  S_1  
     e( 71 - 71) =     -0.00026  eV     1   --> A_1  D_1  S_1  
     e( 72 - 72) =      0.10329  eV     1   --> A_2  D_2  S_2  
     e( 73 - 73) =      0.10827  eV     1   --> B_2  D_4  S_4  
     e( 74 - 74) =      0.28661  eV     1   --> B_1  D_3  S_3  
     e( 75 - 75) =      0.32218  eV     1   --> A_1  D_1  S_1  
     e( 76 - 76) =      0.35226  eV     1   --> B_1  D_3  S_3  
     e( 77 - 77) =      3.49334  eV     1   --> B_1  D_3  S_3  
     e( 78 - 78) =      4.05815  eV     1   --> A_1  D_1  S_1  
     e( 79 - 79) =      5.12874  eV     1   --> B_1  D_3  S_3  
     e( 80 - 80) =      5.60074  eV     1   --> A_1  D_1  S_1  
     e( 81 - 81) =      6.02793  eV     1   --> B_1  D_3  S_3  
     e( 82 - 82) =      6.55083  eV     1   --> B_2  D_4  S_4  
     e( 83 - 83) =      7.56637  eV     1   --> A_1  D_1  S_1  
     e( 84 - 84) =      7.61629  eV     1   --> A_2  D_2  S_2  
     e( 85 - 85) =      7.68421  eV     1   --> A_2  D_2  S_2  
     e( 86 - 86) =      7.90748  eV     1   --> A_1  D_1  S_1  
     e( 87 - 87) =      8.26594  eV     1   --> B_1  D_3  S_3  
     e( 88 - 88) =      8.40098  eV     1   --> B_2  D_4  S_4  
     e( 89 - 89) =      8.41968  eV     1   --> A_1  D_1  S_1  
     e( 90 - 90) =      8.76984  eV     1   --> B_1  D_3  S_3  
     e( 91 - 91) =      9.69428  eV     1   --> A_1  D_1  S_1  
     e( 92 - 92) =     10.52598  eV     1   --> B_1  D_3  S_3  
     e( 93 - 93) =     11.48473  eV     1   --> B_1  D_3  S_3  
     e( 94 - 94) =     12.31490  eV     1   --> A_2  D_2  S_2  
     e( 95 - 95) =     12.48596  eV     1   --> A_1  D_1  S_1  
     e( 96 - 96) =     12.57454  eV     1   --> B_2  D_4  S_4  
     e( 97 - 97) =     12.60429  eV     1   --> A_1  D_1  S_1  
     e( 98 - 98) =     12.96022  eV     1   --> A_1  D_1  S_1  
     e( 99 - 99) =     13.00596  eV     1   --> B_1  D_3  S_3  
     e(100 -100) =     13.49446  eV     1   --> A_1  D_1  S_1  
     e(101 -101) =     13.55556  eV     1   --> B_1  D_3  S_3  
     e(102 -102) =     13.96586  eV     1   --> B_1  D_3  S_3  
     e(103 -103) =     14.18445  eV     1   --> A_2  D_2  S_2  
     e(104 -104) =     14.45499  eV     1   --> B_1  D_3  S_3  
     e(105 -105) =     14.54891  eV     1   --> A_1  D_1  S_1  
     e(106 -106) =     14.84052  eV     1   --> B_1  D_3  S_3  

 **************************************************************************

 **************************************************************************

                    xk=(   0.02500,   0.00000,   0.00000  )

     Band symmetry, C_2v (mm2)  point group:

     e(  1 -  2) =    -94.22560  eV     2   --> A_1  D_1  S_1  
     e(  1 -  2) =    -94.22560  eV     2   --> B_1  D_3  S_3  
     e(  3 -  4) =    -94.22543  eV     2   --> A_1  D_1  S_1  
     e(  3 -  4) =    -94.22543  eV     2   --> B_1  D_3  S_3  
     e(  5 -  6) =    -55.28520  eV     2   --> A_2  D_2  S_2  
     e(  5 -  6) =    -55.28520  eV     2   --> B_2  D_4  S_4  
     e(  7 -  8) =    -55.28330  eV     2   --> A_2  D_2  S_2  
     e(  7 -  8) =    -55.28330  eV     2   --> B_2  D_4  S_4  
     e(  9 - 10) =    -55.27765  eV     2   --> A_1  D_1  S_1  
     e(  9 - 10) =    -55.27765  eV     2   --> B_1  D_3  S_3  
     e( 11 - 12) =    -55.27550  eV     2   --> A_1  D_1  S_1  
     e( 11 - 12) =    -55.27550  eV     2   --> B_1  D_3  S_3  
     e( 13 - 14) =    -55.26731  eV     2   --> A_1  D_1  S_1  
     e( 13 - 14) =    -55.26731  eV     2   --> B_1  D_3  S_3  
     e( 15 - 16) =    -55.26717  eV     2   --> A_1  D_1  S_1  
     e( 15 - 16) =    -55.26717  eV     2   --> B_1  D_3  S_3  
     e( 17 - 17) =    -43.94335  eV     1   --> A_1  D_1  S_1  
     e( 18 - 18) =    -43.94314  eV     1   --> B_1  D_3  S_3  
     e( 19 - 19) =    -43.94244  eV     1   --> A_1  D_1  S_1  
     e( 20 - 20) =    -43.94224  eV     1   --> B_1  D_3  S_3  
     e( 21 - 24) =    -26.49499  eV     4   -->   2 A_1  D_1  S_1  
     e( 21 - 24) =    -26.49499  eV     4   -->   2 B_1  D_3  S_3  
     e( 25 - 28) =    -26.49455  eV     4   -->   2 A_2  D_2  S_2  
     e( 25 - 28) =    -26.49455  eV     4   -->   2 B_2  D_4  S_4  
     e( 29 - 31) =    -26.46045  eV     3   --> A_1  D_1  S_1  
     e( 29 - 31) =    -26.46045  eV     3   -->   2 B_1  D_3  S_3  
     e( 32 - 32) =    -26.46030  eV     1   --> A_1  D_1  S_1  
     e( 33 - 36) =    -26.44134  eV     4   -->   2 A_2  D_2  S_2  
     e( 33 - 36) =    -26.44134  eV     4   -->   2 B_2  D_4  S_4  
     e( 37 - 40) =    -26.43699  eV     4   -->   2 A_1  D_1  S_1  
     e( 37 - 40) =    -26.43699  eV     4   -->   2 B_1  D_3  S_3  
     e( 41 - 41) =    -15.89202  eV     1   --> B_1  D_3  S_3  
     e( 42 - 42) =    -15.89155  eV     1   --> A_1  D_1  S_1  
     e( 43 - 43) =    -15.87864  eV     1   --> B_1  D_3  S_3  
     e( 44 - 44) =    -15.87769  eV     1   --> A_1  D_1  S_1  
     e( 45 - 45) =    -15.87539  eV     1   --> B_1  D_3  S_3  
     e( 46 - 46) =    -15.87333  eV     1   --> B_1  D_3  S_3  
     e( 47 - 47) =    -15.87255  eV     1   --> B_2  D_4  S_4  
     e( 48 - 48) =    -15.87145  eV     1   --> A_2  D_2  S_2  
     e( 49 - 49) =    -15.86770  eV     1   --> A_1  D_1  S_1  
     e( 50 - 50) =    -15.86502  eV     1   --> A_1  D_1  S_1  
     e( 51 - 51) =    -15.86447  eV     1   --> B_2  D_4  S_4  
     e( 52 - 52) =    -15.86347  eV     1   --> A_2  D_2  S_2  
     e( 53 - 53) =     -2.50676  eV     1   --> A_1  D_1  S_1  
     e( 54 - 54) =     -2.13320  eV     1   --> B_1  D_3  S_3  
     e( 55 - 55) =     -2.05939  eV     1   --> B_1  D_3  S_3  
     e( 56 - 56) =     -2.03073  eV     1   --> A_1  D_1  S_1  
     e( 57 - 57) =     -0.35583  eV     1   --> B_1  D_3  S_3  
     e( 58 - 58) =     -0.29645  eV     1   --> A_2  D_2  S_2  
     e( 59 - 59) =     -0.28720  eV     1   --> B_2  D_4  S_4  
     e( 60 - 60) =     -0.24821  eV     1   --> B_2  D_4  S_4  
     e( 61 - 61) =     -0.24049  eV     1   --> A_1  D_1  S_1  
     e( 62 - 62) =     -0.23172  eV     1   --> A_1  D_1  S_1  
     e( 63 - 63) =     -0.21900  eV     1   --> A_2  D_2  S_2  
     e( 64 - 64) =     -0.19274  eV     1   --> B_1  D_3  S_3  
     e( 65 - 65) =     -0.14115  eV     1   --> A_2  D_2  S_2  
     e( 66 - 66) =     -0.10827  eV     1   --> B_2  D_4  S_4  
     e( 67 - 67) =     -0.08282  eV     1   --> A_1  D_1  S_1  
     e( 68 - 68) =     -0.04699  eV     1   --> B_1  D_3  S_3  
     e( 69 - 69) =     -0.04200  eV     1   --> A_1  D_1  S_1  
     e( 70 - 70) =     -0.04125  eV     1   --> B_1  D_3  S_3  
     e( 71 - 71) =     -0.00020  eV     1   --> A_1  D_1  S_1  
     e( 72 - 72) =      0.10329  eV     1   --> A_2  D_2  S_2  
     e( 73 - 73) =      0.10826  eV     1   --> B_2  D_4  S_4  
     e( 74 - 74) =      0.28408  eV     1   --> B_1  D_3  S_3  
     e( 75 - 75) =      0.32243  eV     1   --> A_1  D_1  S_1  
     e( 76 - 76) =      0.35416  eV     1   --> B_1  D_3  S_3  
     e( 77 - 77) =      3.49387  eV     1   --> B_1  D_3  S_3  
     e( 78 - 78) =      4.05648  eV     1   --> A_1  D_1  S_1  
     e( 79 - 79) =      5.12788  eV     1   --> B_1  D_3  S_3  
     e( 80 - 80) =      5.60338  eV     1   --> A_1  D_1  S_1  
     e( 81 - 81) =      6.03187  eV     1   --> B_1  D_3  S_3  
     e( 82 - 82) =      6.55140  eV     1   --> B_2  D_4  S_4  
     e( 83 - 83) =      7.56649  eV     1   --> A_1  D_1  S_1  
     e( 84 - 84) =      7.60829  eV     1   --> A_2  D_2  S_2  
     e( 85 - 85) =      7.69183  eV     1   --> A_2  D_2  S_2  
     e( 86 - 86) =      7.89716  eV     1   --> A_1  D_1  S_1  
     e( 87 - 87) =      8.26506  eV     1   --> B_1  D_3  S_3  
     e( 88 - 88) =      8.40066  eV     1   --> B_2  D_4  S_4  
     e( 89 - 89) =      8.43011  eV     1   --> A_1  D_1  S_1  
     e( 90 - 90) =      8.77033  eV     1   --> B_1  D_3  S_3  
     e( 91 - 91) =      9.69486  eV     1   --> A_1  D_1  S_1  
     e( 92 - 92) =     10.52134  eV     1   --> B_1  D_3  S_3  
     e( 93 - 93) =     11.48856  eV     1   --> B_1  D_3  S_3  
     e( 94 - 94) =     12.31508  eV     1   --> A_2  D_2  S_2  
     e( 95 - 95) =     12.47013  eV     1   --> A_1  D_1  S_1  
     e( 96 - 96) =     12.57136  eV     1   --> A_1  D_1  S_1  
     e( 97 - 97) =     12.57351  eV     1   --> B_2  D_4  S_4  
     e( 98 - 98) =     12.99533  eV     1   --> B_1  D_3  S_3  
     e( 99 - 99) =     13.00573  eV     1   --> A_1  D_1  S_1  
     e(100 -100) =     13.49157  eV     1   --> A_1  D_1  S_1  
     e(101 -101) =     13.55650  eV     1   --> B_1  D_3  S_3  
     e(102 -102) =     13.97001  eV     1   --> B_1  D_3  S_3  
     e(103 -103) =     14.18326  eV     1   --> A_2  D_2  S_2  
     e(104 -104) =     14.43923  eV     1   --> B_1  D_3  S_3  
     e(105 -105) =     14.54799  eV     1   --> A_1  D_1  S_1  
     e(106 -106) =     14.86380  eV     1   --> B_1  D_3  S_3  

 **************************************************************************

 **************************************************************************

                    xk=(   0.03333,   0.00000,   0.00000  )

     Band symmetry, C_2v (mm2)  point group:

     e(  1 -  2) =    -94.22560  eV     2   --> A_1  D_1  S_1  
     e(  1 -  2) =    -94.22560  eV     2   --> B_1  D_3  S_3  
     e(  3 -  4) =    -94.22543  eV     2   --> A_1  D_1  S_1  
     e(  3 -  4) =    -94.22543  eV     2   --> B_1  D_3  S_3  
     e(  5 -  6) =    -55.28520  eV     2   --> A_2  D_2  S_2  
     e(  5 -  6) =    -55.28520  eV     2   --> B_2  D_4  S_4  
     e(  7 -  8) =    -55.28330  eV     2   --> A_2  D_2  S_2  
     e(  7 -  8) =    -55.28330  eV     2   --> B_2  D_4  S_4  
     e(  9 - 10) =    -55.27765  eV     2   --> A_1  D_1  S_1  
     e(  9 - 10) =    -55.27765  eV     2   --> B_1  D_3  S_3  
     e( 11 - 12) =    -55.27550  eV     2   --> A_1  D_1  S_1  
     e( 11 - 12) =    -55.27550  eV     2   --> B_1  D_3  S_3  
     e( 13 - 14) =    -55.26731  eV     2   --> A_1  D_1  S_1  
     e( 13 - 14) =    -55.26731  eV     2   --> B_1  D_3  S_3  
     e( 15 - 16) =    -55.26717  eV     2   --> A_1  D_1  S_1  
     e( 15 - 16) =    -55.26717  eV     2   --> B_1  D_3  S_3  
     e( 17 - 17) =    -43.94335  eV     1   --> A_1  D_1  S_1  
     e( 18 - 18) =    -43.94314  eV     1   --> B_1  D_3  S_3  
     e( 19 - 19) =    -43.94244  eV     1   --> A_1  D_1  S_1  
     e( 20 - 20) =    -43.94224  eV     1   --> B_1  D_3  S_3  
     e( 21 - 24) =    -26.49499  eV     4   -->   2 A_1  D_1  S_1  
     e( 21 - 24) =    -26.49499  eV     4   -->   2 B_1  D_3  S_3  
     e( 25 - 28) =    -26.49455  eV     4   -->   2 A_2  D_2  S_2  
     e( 25 - 28) =    -26.49455  eV     4   -->   2 B_2  D_4  S_4  
     e( 29 - 31) =    -26.46045  eV     3   --> A_1  D_1  S_1  
     e( 29 - 31) =    -26.46045  eV     3   -->   2 B_1  D_3  S_3  
     e( 32 - 32) =    -26.46030  eV     1   --> A_1  D_1  S_1  
     e( 33 - 36) =    -26.44134  eV     4   -->   2 A_2  D_2  S_2  
     e( 33 - 36) =    -26.44134  eV     4   -->   2 B_2  D_4  S_4  
     e( 37 - 40) =    -26.43699  eV     4   -->   2 A_1  D_1  S_1  
     e( 37 - 40) =    -26.43699  eV     4   -->   2 B_1  D_3  S_3  
     e( 41 - 41) =    -15.89202  eV     1   --> B_1  D_3  S_3  
     e( 42 - 42) =    -15.89155  eV     1   --> A_1  D_1  S_1  
     e( 43 - 43) =    -15.87864  eV     1   --> B_1  D_3  S_3  
     e( 44 - 44) =    -15.87769  eV     1   --> A_1  D_1  S_1  
     e( 45 - 45) =    -15.87539  eV     1   --> B_1  D_3  S_3  
     e( 46 - 46) =    -15.87332  eV     1   --> B_1  D_3  S_3  
     e( 47 - 47) =    -15.87255  eV     1   --> B_2  D_4  S_4  
     e( 48 - 48) =    -15.87146  eV     1   --> A_2  D_2  S_2  
     e( 49 - 49) =    -15.86771  eV     1   --> A_1  D_1  S_1  
     e( 50 - 50) =    -15.86503  eV     1   --> A_1  D_1  S_1  
     e( 51 - 51) =    -15.86447  eV     1   --> B_2  D_4  S_4  
     e( 52 - 52) =    -15.86347  eV     1   --> A_2  D_2  S_2  
     e( 53 - 53) =     -2.50631  eV     1   --> A_1  D_1  S_1  
     e( 54 - 54) =     -2.13374  eV     1   --> B_1  D_3  S_3  
     e( 55 - 55) =     -2.05918  eV     1   --> B_1  D_3  S_3  
     e( 56 - 56) =     -2.03070  eV     1   --> A_1  D_1  S_1  
     e( 57 - 57) =     -0.35568  eV     1   --> B_1  D_3  S_3  
     e( 58 - 58) =     -0.29646  eV     1   --> A_2  D_2  S_2  
     e( 59 - 59) =     -0.28725  eV     1   --> B_2  D_4  S_4  
     e( 60 - 60) =     -0.24814  eV     1   --> B_2  D_4  S_4  
     e( 61 - 61) =     -0.24038  eV     1   --> A_1  D_1  S_1  
     e( 62 - 62) =     -0.23177  eV     1   --> A_1  D_1  S_1  
     e( 63 - 63) =     -0.21904  eV     1   --> A_2  D_2  S_2  
     e( 64 - 64) =     -0.19270  eV     1   --> B_1  D_3  S_3  
     e( 65 - 65) =     -0.14109  eV     1   --> A_2  D_2  S_2  
     e( 66 - 66) =     -0.10830  eV     1   --> B_2  D_4  S_4  
     e( 67 - 67) =     -0.08312  eV     1   --> A_1  D_1  S_1  
     e( 68 - 68) =     -0.04789  eV     1   --> B_1  D_3  S_3  
     e( 69 - 69) =     -0.04211  eV     1   --> A_1  D_1  S_1  
     e( 70 - 70) =     -0.04038  eV     1   --> B_1  D_3  S_3  
     e( 71 - 71) =     -0.00011  eV     1   --> A_1  D_1  S_1  
     e( 72 - 72) =      0.10329  eV     1   --> A_2  D_2  S_2  
     e( 73 - 73) =      0.10825  eV     1   --> B_2  D_4  S_4  
     e( 74 - 74) =      0.28077  eV     1   --> B_1  D_3  S_3  
     e( 75 - 75) =      0.32277  eV     1   --> A_1  D_1  S_1  
     e( 76 - 76) =      0.35658  eV     1   --> B_1  D_3  S_3  
     e( 77 - 77) =      3.49462  eV     1   --> B_1  D_3  S_3  
     e( 78 - 78) =      4.05416  eV     1   --> A_1  D_1  S_1  
     e( 79 - 79) =      5.12670  eV     1   --> B_1  D_3  S_3  
     e( 80 - 80) =      5.60706  eV     1   --> A_1  D_1  S_1  
     e( 81 - 81) =      6.03736  eV     1   --> B_1  D_3  S_3  
     e( 82 - 82) =      6.55221  eV     1   --> B_2  D_4  S_4  
     e( 83 - 83) =      7.56663  eV     1   --> A_1  D_1  S_1  
     e( 84 - 84) =      7.59907  eV     1   --> A_2  D_2  S_2  
     e( 85 - 85) =      7.70052  eV     1   --> A_2  D_2  S_2  
     e( 86 - 86) =      7.88345  eV     1   --> A_1  D_1  S_1  
     e( 87 - 87) =      8.26384  eV     1   --> B_1  D_3  S_3  
     e( 88 - 88) =      8.40022  eV     1   --> B_2  D_4  S_4  
     e( 89 - 89) =      8.44401  eV     1   --> A_1  D_1  S_1  
     e( 90 - 90) =      8.77102  eV     1   --> B_1  D_3  S_3  
     e( 91 - 91) =      9.69567  eV     1   --> A_1  D_1  S_1  
     e( 92 - 92) =     10.51493  eV     1   --> B_1  D_3  S_3  
     e( 93 - 93) =     11.49385  eV     1   --> B_1  D_3  S_3  
     e( 94 - 94) =     12.31533  eV     1   --> A_2  D_2  S_2  
     e( 95 - 95) =     12.44107  eV     1   --> A_1  D_1  S_1  
     e( 96 - 96) =     12.54439  eV     1   --> A_1  D_1  S_1  
     e( 97 - 97) =     12.57208  eV     1   --> B_2  D_4  S_4  
     e( 98 - 98) =     12.98070  eV     1   --> B_1  D_3  S_3  
     e( 99 - 99) =     13.05723  eV     1   --> A_1  D_1  S_1  
     e(100 -100) =     13.48758  eV     1   --> A_1  D_1  S_1  
     e(101 -101) =     13.55783  eV     1   --> B_1  D_3  S_3  
     e(102 -102) =     13.97573  eV     1   --> B_1  D_3  S_3  
     e(103 -103) =     14.18164  eV     1   --> A_2  D_2  S_2  
     e(104 -104) =     14.41966  eV     1   --> B_1  D_3  S_3  
     e(105 -105) =     14.54679  eV     1   --> A_1  D_1  S_1  
     e(106 -106) =     14.89375  eV     1   --> B_1  D_3  S_3  

 **************************************************************************

 **************************************************************************

                    xk=(   0.04167,   0.00000,   0.00000  )

     Band symmetry, C_2v (mm2)  point group:

     e(  1 -  2) =    -94.22560  eV     2   --> A_1  D_1  S_1  
     e(  1 -  2) =    -94.22560  eV     2   --> B_1  D_3  S_3  
     e(  3 -  4) =    -94.22543  eV     2   --> A_1  D_1  S_1  
     e(  3 -  4) =    -94.22543  eV     2   --> B_1  D_3  S_3  
     e(  5 -  6) =    -55.28520  eV     2   --> A_2  D_2  S_2  
     e(  5 -  6) =    -55.28520  eV     2   --> B_2  D_4  S_4  
     e(  7 -  8) =    -55.28330  eV     2   --> A_2  D_2  S_2  
     e(  7 -  8) =    -55.28330  eV     2   --> B_2  D_4  S_4  
     e(  9 - 10) =    -55.27765  eV     2   --> A_1  D_1  S_1  
     e(  9 - 10) =    -55.27765  eV     2   --> B_1  D_3  S_3  
     e( 11 - 12) =    -55.27550  eV     2   --> A_1  D_1  S_1  
     e( 11 - 12) =    -55.27550  eV     2   --> B_1  D_3  S_3  
     e( 13 - 14) =    -55.26731  eV     2   --> A_1  D_1  S_1  
     e( 13 - 14) =    -55.26731  eV     2   --> B_1  D_3  S_3  
     e( 15 - 16) =    -55.26717  eV     2   --> A_1  D_1  S_1  
     e( 15 - 16) =    -55.26717  eV     2   --> B_1  D_3  S_3  
     e( 17 - 17) =    -43.94335  eV     1   --> A_1  D_1  S_1  
     e( 18 - 18) =    -43.94314  eV     1   --> B_1  D_3  S_3  
     e( 19 - 19) =    -43.94244  eV     1   --> A_1  D_1  S_1  
     e( 20 - 20) =    -43.94224  eV     1   --> B_1  D_3  S_3  
     e( 21 - 24) =    -26.49499  eV     4   -->   2 A_1  D_1  S_1  
     e( 21 - 24) =    -26.49499  eV     4   -->   2 B_1  D_3  S_3  
     e( 25 - 28) =    -26.49455  eV     4   -->   2 A_2  D_2  S_2  
     e( 25 - 28) =    -26.49455  eV     4   -->   2 B_2  D_4  S_4  
     e( 29 - 31) =    -26.46045  eV     3   --> A_1  D_1  S_1  
     e( 29 - 31) =    -26.46045  eV     3   -->   2 B_1  D_3  S_3  
     e( 32 - 32) =    -26.46030  eV     1   --> A_1  D_1  S_1  
     e( 33 - 36) =    -26.44134  eV     4   -->   2 A_2  D_2  S_2  
     e( 33 - 36) =    -26.44134  eV     4   -->   2 B_2  D_4  S_4  
     e( 37 - 40) =    -26.43699  eV     4   -->   2 A_1  D_1  S_1  
     e( 37 - 40) =    -26.43699  eV     4   -->   2 B_1  D_3  S_3  
     e( 41 - 41) =    -15.89202  eV     1   --> B_1  D_3  S_3  
     e( 42 - 42) =    -15.89155  eV     1   --> A_1  D_1  S_1  
     e( 43 - 43) =    -15.87863  eV     1   --> B_1  D_3  S_3  
     e( 44 - 44) =    -15.87769  eV     1   --> A_1  D_1  S_1  
     e( 45 - 45) =    -15.87538  eV     1   --> B_1  D_3  S_3  
     e( 46 - 46) =    -15.87330  eV     1   --> B_1  D_3  S_3  
     e( 47 - 47) =    -15.87255  eV     1   --> B_2  D_4  S_4  
     e( 48 - 48) =    -15.87146  eV     1   --> A_2  D_2  S_2  
     e( 49 - 49) =    -15.86772  eV     1   --> A_1  D_1  S_1  
     e( 50 - 50) =    -15.86504  eV     1   --> A_1  D_1  S_1  
     e( 51 - 51) =    -15.86447  eV     1   --> B_2  D_4  S_4  
     e( 52 - 52) =    -15.86347  eV     1   --> A_2  D_2  S_2  
     e( 53 - 53) =     -2.50573  eV     1   --> A_1  D_1  S_1  
     e( 54 - 54) =     -2.13443  eV     1   --> B_1  D_3  S_3  
     e( 55 - 55) =     -2.05890  eV     1   --> B_1  D_3  S_3  
     e( 56 - 56) =     -2.03066  eV     1   --> A_1  D_1  S_1  
     e( 57 - 57) =     -0.35550  eV     1   --> B_1  D_3  S_3  
     e( 58 - 58) =     -0.29646  eV     1   --> A_2  D_2  S_2  
     e( 59 - 59) =     -0.28731  eV     1   --> B_2  D_4  S_4  
     e( 60 - 60) =     -0.24806  eV     1   --> B_2  D_4  S_4  
     e( 61 - 61) =     -0.24024  eV     1   --> A_1  D_1  S_1  
     e( 62 - 62) =     -0.23185  eV     1   --> A_1  D_1  S_1  
     e( 63 - 63) =     -0.21908  eV     1   --> A_2  D_2  S_2  
     e( 64 - 64) =     -0.19265  eV     1   --> B_1  D_3  S_3  
     e( 65 - 65) =     -0.14102  eV     1   --> A_2  D_2  S_2  
     e( 66 - 66) =     -0.10834  eV     1   --> B_2  D_4  S_4  
     e( 67 - 67) =     -0.08351  eV     1   --> A_1  D_1  S_1  
     e( 68 - 68) =     -0.04881  eV     1   --> B_1  D_3  S_3  
     e( 69 - 69) =     -0.04224  eV     1   --> A_1  D_1  S_1  
     e( 70 - 70) =     -0.03950  eV     1   --> B_1  D_3  S_3  
     e( 71 - 71) =      0.00001  eV     1   --> A_1  D_1  S_1  
     e( 72 - 72) =      0.10328  eV     1   --> A_2  D_2  S_2  
     e( 73 - 73) =      0.10823  eV     1   --> B_2  D_4  S_4  
     e( 74 - 74) =      0.27681  eV     1   --> B_1  D_3  S_3  
     e( 75 - 75) =      0.32320  eV     1   --> A_1  D_1  S_1  
     e( 76 - 76) =      0.35940  eV     1   --> B_1  D_3  S_3  
     e( 77 - 77) =      3.49556  eV     1   --> B_1  D_3  S_3  
     e( 78 - 78) =      4.05120  eV     1   --> A_1  D_1  S_1  
     e( 79 - 79) =      5.12524  eV     1   --> B_1  D_3  S_3  
     e( 80 - 80) =      5.61175  eV     1   --> A_1  D_1  S_1  
     e( 81 - 81) =      6.04436  eV     1   --> B_1  D_3  S_3  
     e( 82 - 82) =      6.55324  eV     1   --> B_2  D_4  S_4  
     e( 83 - 83) =      7.56676  eV     1   --> A_1  D_1  S_1  
     e( 84 - 84) =      7.58914  eV     1   --> A_2  D_2  S_2  
     e( 85 - 85) =      7.70977  eV     1   --> A_2  D_2  S_2  
     e( 86 - 86) =      7.86691  eV     1   --> A_1  D_1  S_1  
     e( 87 - 87) =      8.26226  eV     1   --> B_1  D_3  S_3  
     e( 88 - 88) =      8.39965  eV     1   --> B_2  D_4  S_4  
     e( 89 - 89) =      8.46084  eV     1   --> A_1  D_1  S_1  
     e( 90 - 90) =      8.77191  eV     1   --> B_1  D_3  S_3  
     e( 91 - 91) =      9.69671  eV     1   --> A_1  D_1  S_1  
     e( 92 - 92) =     10.50680  eV     1   --> B_1  D_3  S_3  
     e( 93 - 93) =     11.50052  eV     1   --> B_1  D_3  S_3  
     e( 94 - 94) =     12.31565  eV     1   --> A_2  D_2  S_2  
     e( 95 - 95) =     12.39869  eV     1   --> A_1  D_1  S_1  
     e( 96 - 96) =     12.52637  eV     1   --> A_1  D_1  S_1  
     e( 97 - 97) =     12.57025  eV     1   --> B_2  D_4  S_4  
     e( 98 - 98) =     12.96230  eV     1   --> B_1  D_3  S_3  
     e( 99 - 99) =     13.11176  eV     1   --> A_1  D_1  S_1  
     e(100 -100) =     13.48254  eV     1   --> A_1  D_1  S_1  
     e(101 -101) =     13.55954  eV     1   --> B_1  D_3  S_3  
     e(102 -102) =     13.98291  eV     1   --> B_1  D_3  S_3  
     e(103 -103) =     14.17963  eV     1   --> A_2  D_2  S_2  
     e(104 -104) =     14.39760  eV     1   --> B_1  D_3  S_3  
     e(105 -105) =     14.54538  eV     1   --> A_1  D_1  S_1  
     e(106 -106) =     14.92172  eV     1   --> B_2  D_4  S_4  

 **************************************************************************

 **************************************************************************

                    xk=(   0.05000,   0.00000,   0.00000  )

     Band symmetry, C_2v (mm2)  point group:

     e(  1 -  2) =    -94.22560  eV     2   --> A_1  D_1  S_1  
     e(  1 -  2) =    -94.22560  eV     2   --> B_1  D_3  S_3  
     e(  3 -  4) =    -94.22543  eV     2   --> A_1  D_1  S_1  
     e(  3 -  4) =    -94.22543  eV     2   --> B_1  D_3  S_3  
     e(  5 -  6) =    -55.28520  eV     2   --> A_2  D_2  S_2  
     e(  5 -  6) =    -55.28520  eV     2   --> B_2  D_4  S_4  
     e(  7 -  8) =    -55.28329  eV     2   --> A_2  D_2  S_2  
     e(  7 -  8) =    -55.28329  eV     2   --> B_2  D_4  S_4  
     e(  9 - 10) =    -55.27765  eV     2   --> A_1  D_1  S_1  
     e(  9 - 10) =    -55.27765  eV     2   --> B_1  D_3  S_3  
     e( 11 - 12) =    -55.27550  eV     2   --> A_1  D_1  S_1  
     e( 11 - 12) =    -55.27550  eV     2   --> B_1  D_3  S_3  
     e( 13 - 14) =    -55.26731  eV     2   --> A_1  D_1  S_1  
     e( 13 - 14) =    -55.26731  eV     2   --> B_1  D_3  S_3  
     e( 15 - 16) =    -55.26717  eV     2   --> A_1  D_1  S_1  
     e( 15 - 16) =    -55.26717  eV     2   --> B_1  D_3  S_3  
     e( 17 - 17) =    -43.94335  eV     1   --> A_1  D_1  S_1  
     e( 18 - 18) =    -43.94314  eV     1   --> B_1  D_3  S_3  
     e( 19 - 19) =    -43.94244  eV     1   --> A_1  D_1  S_1  
     e( 20 - 20) =    -43.94224  eV     1   --> B_1  D_3  S_3  
     e( 21 - 24) =    -26.49499  eV     4   -->   2 A_1  D_1  S_1  
     e( 21 - 24) =    -26.49499  eV     4   -->   2 B_1  D_3  S_3  
     e( 25 - 28) =    -26.49455  eV     4   -->   2 A_2  D_2  S_2  
     e( 25 - 28) =    -26.49455  eV     4   -->   2 B_2  D_4  S_4  
     e( 29 - 31) =    -26.46045  eV     3   --> A_1  D_1  S_1  
     e( 29 - 31) =    -26.46045  eV     3   -->   2 B_1  D_3  S_3  
     e( 32 - 32) =    -26.46030  eV     1   --> A_1  D_1  S_1  
     e( 33 - 36) =    -26.44134  eV     4   -->   2 A_2  D_2  S_2  
     e( 33 - 36) =    -26.44134  eV     4   -->   2 B_2  D_4  S_4  
     e( 37 - 40) =    -26.43699  eV     4   -->   2 A_1  D_1  S_1  
     e( 37 - 40) =    -26.43699  eV     4   -->   2 B_1  D_3  S_3  
     e( 41 - 41) =    -15.89202  eV     1   --> B_1  D_3  S_3  
     e( 42 - 42) =    -15.89155  eV     1   --> A_1  D_1  S_1  
     e( 43 - 43) =    -15.87863  eV     1   --> B_1  D_3  S_3  
     e( 44 - 44) =    -15.87769  eV     1   --> A_1  D_1  S_1  
     e( 45 - 45) =    -15.87537  eV     1   --> B_1  D_3  S_3  
     e( 46 - 46) =    -15.87328  eV     1   --> B_1  D_3  S_3  
     e( 47 - 47) =    -15.87255  eV     1   --> B_2  D_4  S_4  
     e( 48 - 48) =    -15.87146  eV     1   --> A_2  D_2  S_2  
     e( 49 - 49) =    -15.86774  eV     1   --> A_1  D_1  S_1  
     e( 50 - 50) =    -15.86506  eV     1   --> A_1  D_1  S_1  
     e( 51 - 51) =    -15.86447  eV     1   --> B_2  D_4  S_4  
     e( 52 - 52) =    -15.86347  eV     1   --> A_2  D_2  S_2  
     e( 53 - 53) =     -2.50502  eV     1   --> A_1  D_1  S_1  
     e( 54 - 54) =     -2.13526  eV     1   --> B_1  D_3  S_3  
     e( 55 - 55) =     -2.05857  eV     1   --> B_1  D_3  S_3  
     e( 56 - 56) =     -2.03061  eV     1   --> A_1  D_1  S_1  
     e( 57 - 57) =     -0.35527  eV     1   --> B_1  D_3  S_3  
     e( 58 - 58) =     -0.29647  eV     1   --> A_2  D_2  S_2  
     e( 59 - 59) =     -0.28738  eV     1   --> B_2  D_4  S_4  
     e( 60 - 60) =     -0.24796  eV     1   --> B_2  D_4  S_4  
     e( 61 - 61) =     -0.24007  eV     1   --> A_1  D_1  S_1  
     e( 62 - 62) =     -0.23193  eV     1   --> A_1  D_1  S_1  
     e( 63 - 63) =     -0.21913  eV     1   --> A_2  D_2  S_2  
     e( 64 - 64) =     -0.19259  eV     1   --> B_1  D_3  S_3  
     e( 65 - 65) =     -0.14093  eV     1   --> A_2  D_2  S_2  
     e( 66 - 66) =     -0.10839  eV     1   --> B_2  D_4  S_4  
     e( 67 - 67) =     -0.08399  eV     1   --> A_1  D_1  S_1  
     e( 68 - 68) =     -0.04975  eV     1   --> B_1  D_3  S_3  
     e( 69 - 69) =     -0.04240  eV     1   --> A_1  D_1  S_1  
     e( 70 - 70) =     -0.03862  eV     1   --> B_1  D_3  S_3  
     e( 71 - 71) =      0.00015  eV     1   --> A_1  D_1  S_1  
     e( 72 - 72) =      0.10328  eV     1   --> A_2  D_2  S_2  
     e( 73 - 73) =      0.10821  eV     1   --> B_2  D_4  S_4  
     e( 74 - 74) =      0.27234  eV     1   --> B_1  D_3  S_3  
     e( 75 - 75) =      0.32373  eV     1   --> A_1  D_1  S_1  
     e( 76 - 76) =      0.36249  eV     1   --> B_1  D_3  S_3  
     e( 77 - 77) =      3.49671  eV     1   --> B_1  D_3  S_3  
     e( 78 - 78) =      4.04762  eV     1   --> A_1  D_1  S_1  
     e( 79 - 79) =      5.12354  eV     1   --> B_1  D_3  S_3  
     e( 80 - 80) =      5.61743  eV     1   --> A_1  D_1  S_1  
     e( 81 - 81) =      6.05282  eV     1   --> B_1  D_3  S_3  
     e( 82 - 82) =      6.55450  eV     1   --> B_2  D_4  S_4  
     e( 83 - 83) =      7.56681  eV     1   --> A_1  D_1  S_1  
     e( 84 - 84) =      7.57875  eV     1   --> A_2  D_2  S_2  
     e( 85 - 85) =      7.71931  eV     1   --> A_2  D_2  S_2  
     e( 86 - 86) =      7.84812  eV     1   --> A_1  D_1  S_1  
     e( 87 - 87) =      8.26034  eV     1   --> B_1  D_3  S_3  
     e( 88 - 88) =      8.39895  eV     1   --> B_2  D_4  S_4  
     e( 89 - 89) =      8.48007  eV     1   --> A_1  D_1  S_1  
     e( 90 - 90) =      8.77300  eV     1   --> B_1  D_3  S_3  
     e( 91 - 91) =      9.69797  eV     1   --> A_1  D_1  S_1  
     e( 92 - 92) =     10.49706  eV     1   --> B_1  D_3  S_3  
     e( 93 - 93) =     11.50848  eV     1   --> B_1  D_3  S_3  
     e( 94 - 94) =     12.31603  eV     1   --> A_2  D_2  S_2  
     e( 95 - 95) =     12.34814  eV     1   --> A_1  D_1  S_1  
     e( 96 - 96) =     12.51366  eV     1   --> A_1  D_1  S_1  
     e( 97 - 97) =     12.56803  eV     1   --> B_2  D_4  S_4  
     e( 98 - 98) =     12.94040  eV     1   --> B_1  D_3  S_3  
     e( 99 - 99) =     13.16780  eV     1   --> A_1  D_1  S_1  
     e(100 -100) =     13.47655  eV     1   --> A_1  D_1  S_1  
     e(101 -101) =     13.56165  eV     1   --> B_1  D_3  S_3  
     e(102 -102) =     13.99143  eV     1   --> B_1  D_3  S_3  
     e(103 -103) =     14.17728  eV     1   --> A_2  D_2  S_2  
     e(104 -104) =     14.37400  eV     1   --> B_1  D_3  S_3  
     e(105 -105) =     14.54385  eV     1   --> A_1  D_1  S_1  
     e(106 -106) =     14.92815  eV     1   --> B_2  D_4  S_4  

 **************************************************************************

 **************************************************************************

                    xk=(   0.05833,   0.00000,   0.00000  )

     Band symmetry, C_2v (mm2)  point group:

     e(  1 -  2) =    -94.22560  eV     2   --> A_1  D_1  S_1  
     e(  1 -  2) =    -94.22560  eV     2   --> B_1  D_3  S_3  
     e(  3 -  4) =    -94.22543  eV     2   --> A_1  D_1  S_1  
     e(  3 -  4) =    -94.22543  eV     2   --> B_1  D_3  S_3  
     e(  5 -  6) =    -55.28520  eV     2   --> A_2  D_2  S_2  
     e(  5 -  6) =    -55.28520  eV     2   --> B_2  D_4  S_4  
     e(  7 -  8) =    -55.28329  eV     2   --> A_2  D_2  S_2  
     e(  7 -  8) =    -55.28329  eV     2   --> B_2  D_4  S_4  
     e(  9 - 10) =    -55.27765  eV     2   --> A_1  D_1  S_1  
     e(  9 - 10) =    -55.27765  eV     2   --> B_1  D_3  S_3  
     e( 11 - 12) =    -55.27551  eV     2   --> A_1  D_1  S_1  
     e( 11 - 12) =    -55.27551  eV     2   --> B_1  D_3  S_3  
     e( 13 - 14) =    -55.26731  eV     2   --> A_1  D_1  S_1  
     e( 13 - 14) =    -55.26731  eV     2   --> B_1  D_3  S_3  
     e( 15 - 16) =    -55.26717  eV     2   --> A_1  D_1  S_1  
     e( 15 - 16) =    -55.26717  eV     2   --> B_1  D_3  S_3  
     e( 17 - 17) =    -43.94335  eV     1   --> A_1  D_1  S_1  
     e( 18 - 18) =    -43.94314  eV     1   --> B_1  D_3  S_3  
     e( 19 - 19) =    -43.94244  eV     1   --> A_1  D_1  S_1  
     e( 20 - 20) =    -43.94224  eV     1   --> B_1  D_3  S_3  
     e( 21 - 24) =    -26.49499  eV     4   -->   2 A_1  D_1  S_1  
     e( 21 - 24) =    -26.49499  eV     4   -->   2 B_1  D_3  S_3  
     e( 25 - 28) =    -26.49455  eV     4   -->   2 A_2  D_2  S_2  
     e( 25 - 28) =    -26.49455  eV     4   -->   2 B_2  D_4  S_4  
     e( 29 - 31) =    -26.46045  eV     3   --> A_1  D_1  S_1  
     e( 29 - 31) =    -26.46045  eV     3   -->   2 B_1  D_3  S_3  
     e( 32 - 32) =    -26.46030  eV     1   --> A_1  D_1  S_1  
     e( 33 - 36) =    -26.44134  eV     4   -->   2 A_2  D_2  S_2  
     e( 33 - 36) =    -26.44134  eV     4   -->   2 B_2  D_4  S_4  
     e( 37 - 40) =    -26.43699  eV     4   -->   2 A_1  D_1  S_1  
     e( 37 - 40) =    -26.43699  eV     4   -->   2 B_1  D_3  S_3  
     e( 41 - 41) =    -15.89202  eV     1   --> B_1  D_3  S_3  
     e( 42 - 42) =    -15.89156  eV     1   --> A_1  D_1  S_1  
     e( 43 - 43) =    -15.87862  eV     1   --> B_1  D_3  S_3  
     e( 44 - 44) =    -15.87769  eV     1   --> A_1  D_1  S_1  
     e( 45 - 45) =    -15.87537  eV     1   --> B_1  D_3  S_3  
     e( 46 - 46) =    -15.87326  eV     1   --> B_1  D_3  S_3  
     e( 47 - 47) =    -15.87254  eV     1   --> B_2  D_4  S_4  
     e( 48 - 48) =    -15.87146  eV     1   --> A_2  D_2  S_2  
     e( 49 - 49) =    -15.86775  eV     1   --> A_1  D_1  S_1  
     e( 50 - 50) =    -15.86507  eV     1   --> A_1  D_1  S_1  
     e( 51 - 51) =    -15.86447  eV     1   --> B_2  D_4  S_4  
     e( 52 - 52) =    -15.86348  eV     1   --> A_2  D_2  S_2  
     e( 53 - 53) =     -2.50418  eV     1   --> A_1  D_1  S_1  
     e( 54 - 54) =     -2.13625  eV     1   --> B_1  D_3  S_3  
     e( 55 - 55) =     -2.05819  eV     1   --> B_1  D_3  S_3  
     e( 56 - 56) =     -2.03055  eV     1   --> A_1  D_1  S_1  
     e( 57 - 57) =     -0.35501  eV     1   --> B_1  D_3  S_3  
     e( 58 - 58) =     -0.29647  eV     1   --> A_2  D_2  S_2  
     e( 59 - 59) =     -0.28746  eV     1   --> B_2  D_4  S_4  
     e( 60 - 60) =     -0.24784  eV     1   --> B_2  D_4  S_4  
     e( 61 - 61) =     -0.23989  eV     1   --> A_1  D_1  S_1  
     e( 62 - 62) =     -0.23202  eV     1   --> A_1  D_1  S_1  
     e( 63 - 63) =     -0.21919  eV     1   --> A_2  D_2  S_2  
     e( 64 - 64) =     -0.19252  eV     1   --> B_1  D_3  S_3  
     e( 65 - 65) =     -0.14082  eV     1   --> A_2  D_2  S_2  
     e( 66 - 66) =     -0.10844  eV     1   --> B_2  D_4  S_4  
     e( 67 - 67) =     -0.08456  eV     1   --> A_1  D_1  S_1  
     e( 68 - 68) =     -0.05069  eV     1   --> B_1  D_3  S_3  
     e( 69 - 69) =     -0.04258  eV     1   --> A_1  D_1  S_1  
     e( 70 - 70) =     -0.03774  eV     1   --> B_1  D_3  S_3  
     e( 71 - 71) =      0.00030  eV     1   --> A_1  D_1  S_1  
     e( 72 - 72) =      0.10328  eV     1   --> A_2  D_2  S_2  
     e( 73 - 73) =      0.10819  eV     1   --> B_2  D_4  S_4  
     e( 74 - 74) =      0.26745  eV     1   --> B_1  D_3  S_3  
     e( 75 - 75) =      0.32435  eV     1   --> A_1  D_1  S_1  
     e( 76 - 76) =      0.36576  eV     1   --> B_1  D_3  S_3  
     e( 77 - 77) =      3.49805  eV     1   --> B_1  D_3  S_3  
     e( 78 - 78) =      4.04344  eV     1   --> A_1  D_1  S_1  
     e( 79 - 79) =      5.12164  eV     1   --> B_1  D_3  S_3  
     e( 80 - 80) =      5.62406  eV     1   --> A_1  D_1  S_1  
     e( 81 - 81) =      6.06272  eV     1   --> B_1  D_3  S_3  
     e( 82 - 82) =      6.55599  eV     1   --> B_2  D_4  S_4  
     e( 83 - 83) =      7.56671  eV     1   --> A_1  D_1  S_1  
     e( 84 - 84) =      7.56806  eV     1   --> A_2  D_2  S_2  
     e( 85 - 85) =      7.72902  eV     1   --> A_2  D_2  S_2  
     e( 86 - 86) =      7.82764  eV     1   --> A_1  D_1  S_1  
     e( 87 - 87) =      8.25807  eV     1   --> B_1  D_3  S_3  
     e( 88 - 88) =      8.39813  eV     1   --> B_2  D_4  S_4  
     e( 89 - 89) =      8.50122  eV     1   --> A_1  D_1  S_1  
     e( 90 - 90) =      8.77428  eV     1   --> B_1  D_3  S_3  
     e( 91 - 91) =      9.69946  eV     1   --> A_1  D_1  S_1  
     e( 92 - 92) =     10.48578  eV     1   --> B_1  D_3  S_3  
     e( 93 - 93) =     11.51764  eV     1   --> B_1  D_3  S_3  
     e( 94 - 94) =     12.29349  eV     1   --> A_1  D_1  S_1  
     e( 95 - 95) =     12.31647  eV     1   --> A_2  D_2  S_2  
     e( 96 - 96) =     12.50302  eV     1   --> A_1  D_1  S_1  
     e( 97 - 97) =     12.56543  eV     1   --> B_2  D_4  S_4  
     e( 98 - 98) =     12.91529  eV     1   --> B_1  D_3  S_3  
     e( 99 - 99) =     13.22441  eV     1   --> A_1  D_1  S_1  
     e(100 -100) =     13.46974  eV     1   --> A_1  D_1  S_1  
     e(101 -101) =     13.56415  eV     1   --> B_1  D_3  S_3  
     e(102 -102) =     14.00116  eV     1   --> B_1  D_3  S_3  
     e(103 -103) =     14.17464  eV     1   --> A_2  D_2  S_2  
     e(104 -104) =     14.34952  eV     1   --> B_1  D_3  S_3  
     e(105 -105) =     14.54227  eV     1   --> A_1  D_1  S_1  
     e(106 -106) =     14.93570  eV     1   --> B_2  D_4  S_4  

 **************************************************************************

 **************************************************************************

                    xk=(   0.06667,   0.00000,   0.00000  )

     Band symmetry, C_2v (mm2)  point group:

     e(  1 -  2) =    -94.22560  eV     2   --> A_1  D_1  S_1  
     e(  1 -  2) =    -94.22560  eV     2   --> B_1  D_3  S_3  
     e(  3 -  4) =    -94.22543  eV     2   --> A_1  D_1  S_1  
     e(  3 -  4) =    -94.22543  eV     2   --> B_1  D_3  S_3  
     e(  5 -  6) =    -55.28520  eV     2   --> A_2  D_2  S_2  
     e(  5 -  6) =    -55.28520  eV     2   --> B_2  D_4  S_4  
     e(  7 -  8) =    -55.28329  eV     2   --> A_2  D_2  S_2  
     e(  7 -  8) =    -55.28329  eV     2   --> B_2  D_4  S_4  
     e(  9 - 10) =    -55.27765  eV     2   --> A_1  D_1  S_1  
     e(  9 - 10) =    -55.27765  eV     2   --> B_1  D_3  S_3  
     e( 11 - 12) =    -55.27551  eV     2   --> A_1  D_1  S_1  
     e( 11 - 12) =    -55.27551  eV     2   --> B_1  D_3  S_3  
     e( 13 - 14) =    -55.26731  eV     2   --> A_1  D_1  S_1  
     e( 13 - 14) =    -55.26731  eV     2   --> B_1  D_3  S_3  
     e( 15 - 16) =    -55.26717  eV     2   --> A_1  D_1  S_1  
     e( 15 - 16) =    -55.26717  eV     2   --> B_1  D_3  S_3  
     e( 17 - 17) =    -43.94335  eV     1   --> A_1  D_1  S_1  
     e( 18 - 18) =    -43.94314  eV     1   --> B_1  D_3  S_3  
     e( 19 - 19) =    -43.94244  eV     1   --> A_1  D_1  S_1  
     e( 20 - 20) =    -43.94224  eV     1   --> B_1  D_3  S_3  
     e( 21 - 24) =    -26.49499  eV     4   -->   2 A_1  D_1  S_1  
     e( 21 - 24) =    -26.49499  eV     4   -->   2 B_1  D_3  S_3  
     e( 25 - 28) =    -26.49455  eV     4   -->   2 A_2  D_2  S_2  
     e( 25 - 28) =    -26.49455  eV     4   -->   2 B_2  D_4  S_4  
     e( 29 - 31) =    -26.46045  eV     3   --> A_1  D_1  S_1  
     e( 29 - 31) =    -26.46045  eV     3   -->   2 B_1  D_3  S_3  
     e( 32 - 32) =    -26.46030  eV     1   --> A_1  D_1  S_1  
     e( 33 - 36) =    -26.44134  eV     4   -->   2 A_2  D_2  S_2  
     e( 33 - 36) =    -26.44134  eV     4   -->   2 B_2  D_4  S_4  
     e( 37 - 40) =    -26.43699  eV     4   -->   2 A_1  D_1  S_1  
     e( 37 - 40) =    -26.43699  eV     4   -->   2 B_1  D_3  S_3  
     e( 41 - 41) =    -15.89202  eV     1   --> B_1  D_3  S_3  
     e( 42 - 42) =    -15.89156  eV     1   --> A_1  D_1  S_1  
     e( 43 - 43) =    -15.87861  eV     1   --> B_1  D_3  S_3  
     e( 44 - 44) =    -15.87770  eV     1   --> A_1  D_1  S_1  
     e( 45 - 45) =    -15.87536  eV     1   --> B_1  D_3  S_3  
     e( 46 - 46) =    -15.87323  eV     1   --> B_1  D_3  S_3  
     e( 47 - 47) =    -15.87254  eV     1   --> B_2  D_4  S_4  
     e( 48 - 48) =    -15.87146  eV     1   --> A_2  D_2  S_2  
     e( 49 - 49) =    -15.86778  eV     1   --> A_1  D_1  S_1  
     e( 50 - 50) =    -15.86509  eV     1   --> A_1  D_1  S_1  
     e( 51 - 51) =    -15.86446  eV     1   --> B_2  D_4  S_4  
     e( 52 - 52) =    -15.86348  eV     1   --> A_2  D_2  S_2  
     e( 53 - 53) =     -2.50321  eV     1   --> A_1  D_1  S_1  
     e( 54 - 54) =     -2.13737  eV     1   --> B_1  D_3  S_3  
     e( 55 - 55) =     -2.05776  eV     1   --> B_1  D_3  S_3  
     e( 56 - 56) =     -2.03049  eV     1   --> A_1  D_1  S_1  
     e( 57 - 57) =     -0.35470  eV     1   --> B_1  D_3  S_3  
     e( 58 - 58) =     -0.29648  eV     1   --> A_2  D_2  S_2  
     e( 59 - 59) =     -0.28756  eV     1   --> B_2  D_4  S_4  
     e( 60 - 60) =     -0.24770  eV     1   --> B_2  D_4  S_4  
     e( 61 - 61) =     -0.23969  eV     1   --> A_1  D_1  S_1  
     e( 62 - 62) =     -0.23210  eV     1   --> A_1  D_1  S_1  
     e( 63 - 63) =     -0.21927  eV     1   --> A_2  D_2  S_2  
     e( 64 - 64) =     -0.19244  eV     1   --> B_1  D_3  S_3  
     e( 65 - 65) =     -0.14070  eV     1   --> A_2  D_2  S_2  
     e( 66 - 66) =     -0.10851  eV     1   --> B_2  D_4  S_4  
     e( 67 - 67) =     -0.08520  eV     1   --> A_1  D_1  S_1  
     e( 68 - 68) =     -0.05164  eV     1   --> B_1  D_3  S_3  
     e( 69 - 69) =     -0.04277  eV     1   --> A_1  D_1  S_1  
     e( 70 - 70) =     -0.03687  eV     1   --> B_1  D_3  S_3  
     e( 71 - 71) =      0.00048  eV     1   --> A_1  D_1  S_1  
     e( 72 - 72) =      0.10328  eV     1   --> A_2  D_2  S_2  
     e( 73 - 73) =      0.10816  eV     1   --> B_2  D_4  S_4  
     e( 74 - 74) =      0.26222  eV     1   --> B_1  D_3  S_3  
     e( 75 - 75) =      0.32507  eV     1   --> A_1  D_1  S_1  
     e( 76 - 76) =      0.36912  eV     1   --> B_1  D_3  S_3  
     e( 77 - 77) =      3.49957  eV     1   --> B_1  D_3  S_3  
     e( 78 - 78) =      4.03869  eV     1   --> A_1  D_1  S_1  
     e( 79 - 79) =      5.11959  eV     1   --> B_1  D_3  S_3  
     e( 80 - 80) =      5.63161  eV     1   --> A_1  D_1  S_1  
     e( 81 - 81) =      6.07399  eV     1   --> B_1  D_3  S_3  
     e( 82 - 82) =      6.55771  eV     1   --> B_2  D_4  S_4  
     e( 83 - 83) =      7.55714  eV     1   --> A_2  D_2  S_2  
     e( 84 - 84) =      7.56636  eV     1   --> A_1  D_1  S_1  
     e( 85 - 85) =      7.73881  eV     1   --> A_2  D_2  S_2  
     e( 86 - 86) =      7.80599  eV     1   --> A_1  D_1  S_1  
     e( 87 - 87) =      8.25544  eV     1   --> B_1  D_3  S_3  
     e( 88 - 88) =      8.39718  eV     1   --> B_2  D_4  S_4  
     e( 89 - 89) =      8.52387  eV     1   --> A_1  D_1  S_1  
     e( 90 - 90) =      8.77576  eV     1   --> B_1  D_3  S_3  
     e( 91 - 91) =      9.70117  eV     1   --> A_1  D_1  S_1  
     e( 92 - 92) =     10.47308  eV     1   --> B_1  D_3  S_3  
     e( 93 - 93) =     11.52788  eV     1   --> B_1  D_3  S_3  
     e( 94 - 94) =     12.23678  eV     1   --> A_1  D_1  S_1  
     e( 95 - 95) =     12.31696  eV     1   --> A_2  D_2  S_2  
     e( 96 - 96) =     12.49296  eV     1   --> A_1  D_1  S_1  
     e( 97 - 97) =     12.56247  eV     1   --> B_2  D_4  S_4  
     e( 98 - 98) =     12.88727  eV     1   --> B_1  D_3  S_3  
     e( 99 - 99) =     13.28088  eV     1   --> A_1  D_1  S_1  
     e(100 -100) =     13.46238  eV     1   --> A_1  D_1  S_1  
     e(101 -101) =     13.56706  eV     1   --> B_1  D_3  S_3  
     e(102 -102) =     14.01195  eV     1   --> B_1  D_3  S_3  
     e(103 -103) =     14.17179  eV     1   --> A_2  D_2  S_2  
     e(104 -104) =     14.32462  eV     1   --> B_1  D_3  S_3  
     e(105 -105) =     14.54075  eV     1   --> A_1  D_1  S_1  
     e(106 -106) =     14.94435  eV     1   --> B_2  D_4  S_4  

 **************************************************************************

 **************************************************************************

                    xk=(   0.07500,   0.00000,   0.00000  )

     Band symmetry, C_2v (mm2)  point group:

     e(  1 -  2) =    -94.22560  eV     2   --> A_1  D_1  S_1  
     e(  1 -  2) =    -94.22560  eV     2   --> B_1  D_3  S_3  
     e(  3 -  4) =    -94.22543  eV     2   --> A_1  D_1  S_1  
     e(  3 -  4) =    -94.22543  eV     2   --> B_1  D_3  S_3  
     e(  5 -  6) =    -55.28520  eV     2   --> A_2  D_2  S_2  
     e(  5 -  6) =    -55.28520  eV     2   --> B_2  D_4  S_4  
     e(  7 -  8) =    -55.28329  eV     2   --> A_2  D_2  S_2  
     e(  7 -  8) =    -55.28329  eV     2   --> B_2  D_4  S_4  
     e(  9 - 10) =    -55.27765  eV     2   --> A_1  D_1  S_1  
     e(  9 - 10) =    -55.27765  eV     2   --> B_1  D_3  S_3  
     e( 11 - 12) =    -55.27550  eV     2   --> A_1  D_1  S_1  
     e( 11 - 12) =    -55.27550  eV     2   --> B_1  D_3  S_3  
     e( 13 - 14) =    -55.26731  eV     2   --> A_1  D_1  S_1  
     e( 13 - 14) =    -55.26731  eV     2   --> B_1  D_3  S_3  
     e( 15 - 16) =    -55.26717  eV     2   --> A_1  D_1  S_1  
     e( 15 - 16) =    -55.26717  eV     2   --> B_1  D_3  S_3  
     e( 17 - 17) =    -43.94335  eV     1   --> A_1  D_1  S_1  
     e( 18 - 18) =    -43.94314  eV     1   --> B_1  D_3  S_3  
     e( 19 - 19) =    -43.94244  eV     1   --> A_1  D_1  S_1  
     e( 20 - 20) =    -43.94224  eV     1   --> B_1  D_3  S_3  
     e( 21 - 24) =    -26.49499  eV     4   -->   2 A_1  D_1  S_1  
     e( 21 - 24) =    -26.49499  eV     4   -->   2 B_1  D_3  S_3  
     e( 25 - 28) =    -26.49455  eV     4   -->   2 A_2  D_2  S_2  
     e( 25 - 28) =    -26.49455  eV     4   -->   2 B_2  D_4  S_4  
     e( 29 - 31) =    -26.46045  eV     3   --> A_1  D_1  S_1  
     e( 29 - 31) =    -26.46045  eV     3   -->   2 B_1  D_3  S_3  
     e( 32 - 32) =    -26.46030  eV     1   --> A_1  D_1  S_1  
     e( 33 - 36) =    -26.44134  eV     4   -->   2 A_2  D_2  S_2  
     e( 33 - 36) =    -26.44134  eV     4   -->   2 B_2  D_4  S_4  
     e( 37 - 40) =    -26.43699  eV     4   -->   2 A_1  D_1  S_1  
     e( 37 - 40) =    -26.43699  eV     4   -->   2 B_1  D_3  S_3  
     e( 41 - 41) =    -15.89202  eV     1   --> B_1  D_3  S_3  
     e( 42 - 42) =    -15.89156  eV     1   --> A_1  D_1  S_1  
     e( 43 - 43) =    -15.87860  eV     1   --> B_1  D_3  S_3  
     e( 44 - 44) =    -15.87770  eV     1   --> A_1  D_1  S_1  
     e( 45 - 45) =    -15.87535  eV     1   --> B_1  D_3  S_3  
     e( 46 - 46) =    -15.87319  eV     1   --> B_1  D_3  S_3  
     e( 47 - 47) =    -15.87254  eV     1   --> B_2  D_4  S_4  
     e( 48 - 48) =    -15.87147  eV     1   --> A_2  D_2  S_2  
     e( 49 - 49) =    -15.86780  eV     1   --> A_1  D_1  S_1  
     e( 50 - 50) =    -15.86512  eV     1   --> A_1  D_1  S_1  
     e( 51 - 51) =    -15.86446  eV     1   --> B_2  D_4  S_4  
     e( 52 - 52) =    -15.86348  eV     1   --> A_2  D_2  S_2  
     e( 53 - 53) =     -2.50212  eV     1   --> A_1  D_1  S_1  
     e( 54 - 54) =     -2.13863  eV     1   --> B_1  D_3  S_3  
     e( 55 - 55) =     -2.05728  eV     1   --> B_1  D_3  S_3  
     e( 56 - 56) =     -2.03042  eV     1   --> A_1  D_1  S_1  
     e( 57 - 57) =     -0.35435  eV     1   --> B_1  D_3  S_3  
     e( 58 - 58) =     -0.29649  eV     1   --> A_2  D_2  S_2  
     e( 59 - 59) =     -0.28767  eV     1   --> B_2  D_4  S_4  
     e( 60 - 60) =     -0.24755  eV     1   --> B_2  D_4  S_4  
     e( 61 - 61) =     -0.23948  eV     1   --> A_1  D_1  S_1  
     e( 62 - 62) =     -0.23218  eV     1   --> A_1  D_1  S_1  
     e( 63 - 63) =     -0.21935  eV     1   --> A_2  D_2  S_2  
     e( 64 - 64) =     -0.19234  eV     1   --> B_1  D_3  S_3  
     e( 65 - 65) =     -0.14057  eV     1   --> A_2  D_2  S_2  
     e( 66 - 66) =     -0.10858  eV     1   --> B_2  D_4  S_4  
     e( 67 - 67) =     -0.08594  eV     1   --> A_1  D_1  S_1  
     e( 68 - 68) =     -0.05259  eV     1   --> B_1  D_3  S_3  
     e( 69 - 69) =     -0.04298  eV     1   --> A_1  D_1  S_1  
     e( 70 - 70) =     -0.03599  eV     1   --> B_1  D_3  S_3  
     e( 71 - 71) =      0.00066  eV     1   --> A_1  D_1  S_1  
     e( 72 - 72) =      0.10328  eV     1   --> A_2  D_2  S_2  
     e( 73 - 73) =      0.10813  eV     1   --> B_2  D_4  S_4  
     e( 74 - 74) =      0.25670  eV     1   --> B_1  D_3  S_3  
     e( 75 - 75) =      0.32587  eV     1   --> A_1  D_1  S_1  
     e( 76 - 76) =      0.37253  eV     1   --> B_1  D_3  S_3  
     e( 77 - 77) =      3.50127  eV     1   --> B_1  D_3  S_3  
     e( 78 - 78) =      4.03338  eV     1   --> A_1  D_1  S_1  
     e( 79 - 79) =      5.11745  eV     1   --> B_1  D_3  S_3  
     e( 80 - 80) =      5.64004  eV     1   --> A_1  D_1  S_1  
     e( 81 - 81) =      6.08658  eV     1   --> B_1  D_3  S_3  
     e( 82 - 82) =      6.55966  eV     1   --> B_2  D_4  S_4  
     e( 83 - 83) =      7.54603  eV     1   --> A_2  D_2  S_2  
     e( 84 - 84) =      7.56559  eV     1   --> A_1  D_1  S_1  
     e( 85 - 85) =      7.74864  eV     1   --> A_2  D_2  S_2  
     e( 86 - 86) =      7.78366  eV     1   --> A_1  D_1  S_1  
     e( 87 - 87) =      8.25247  eV     1   --> B_1  D_3  S_3  
     e( 88 - 88) =      8.39610  eV     1   --> B_2  D_4  S_4  
     e( 89 - 89) =      8.54767  eV     1   --> A_1  D_1  S_1  
     e( 90 - 90) =      8.77744  eV     1   --> B_1  D_3  S_3  
     e( 91 - 91) =      9.70311  eV     1   --> A_1  D_1  S_1  
     e( 92 - 92) =     10.45905  eV     1   --> B_1  D_3  S_3  
     e( 93 - 93) =     11.53908  eV     1   --> B_1  D_3  S_3  
     e( 94 - 94) =     12.17903  eV     1   --> A_1  D_1  S_1  
     e( 95 - 95) =     12.31751  eV     1   --> A_2  D_2  S_2  
     e( 96 - 96) =     12.48282  eV     1   --> A_1  D_1  S_1  
     e( 97 - 97) =     12.55915  eV     1   --> B_2  D_4  S_4  
     e( 98 - 98) =     12.85668  eV     1   --> B_1  D_3  S_3  
     e( 99 - 99) =     13.33621  eV     1   --> A_1  D_1  S_1  
     e(100 -100) =     13.45515  eV     1   --> A_1  D_1  S_1  
     e(101 -101) =     13.57038  eV     1   --> B_1  D_3  S_3  
     e(102 -102) =     14.02356  eV     1   --> B_1  D_3  S_3  
     e(103 -103) =     14.16877  eV     1   --> A_2  D_2  S_2  
     e(104 -104) =     14.29968  eV     1   --> B_1  D_3  S_3  
     e(105 -105) =     14.53935  eV     1   --> A_1  D_1  S_1  
     e(106 -106) =     14.95408  eV     1   --> B_2  D_4  S_4  

 **************************************************************************

 **************************************************************************

                    xk=(   0.08333,   0.00000,   0.00000  )

     Band symmetry, C_2v (mm2)  point group:

     e(  1 -  2) =    -94.22560  eV     2   --> A_1  D_1  S_1  
     e(  1 -  2) =    -94.22560  eV     2   --> B_1  D_3  S_3  
     e(  3 -  4) =    -94.22543  eV     2   --> A_1  D_1  S_1  
     e(  3 -  4) =    -94.22543  eV     2   --> B_1  D_3  S_3  
     e(  5 -  6) =    -55.28520  eV     2   --> A_2  D_2  S_2  
     e(  5 -  6) =    -55.28520  eV     2   --> B_2  D_4  S_4  
     e(  7 -  8) =    -55.28329  eV     2   --> A_2  D_2  S_2  
     e(  7 -  8) =    -55.28329  eV     2   --> B_2  D_4  S_4  
     e(  9 - 10) =    -55.27765  eV     2   --> A_1  D_1  S_1  
     e(  9 - 10) =    -55.27765  eV     2   --> B_1  D_3  S_3  
     e( 11 - 12) =    -55.27551  eV     2   --> A_1  D_1  S_1  
     e( 11 - 12) =    -55.27551  eV     2   --> B_1  D_3  S_3  
     e( 13 - 14) =    -55.26731  eV     2   --> A_1  D_1  S_1  
     e( 13 - 14) =    -55.26731  eV     2   --> B_1  D_3  S_3  
     e( 15 - 16) =    -55.26717  eV     2   --> A_1  D_1  S_1  
     e( 15 - 16) =    -55.26717  eV     2   --> B_1  D_3  S_3  
     e( 17 - 17) =    -43.94335  eV     1   --> A_1  D_1  S_1  
     e( 18 - 18) =    -43.94314  eV     1   --> B_1  D_3  S_3  
     e( 19 - 19) =    -43.94244  eV     1   --> A_1  D_1  S_1  
     e( 20 - 20) =    -43.94224  eV     1   --> B_1  D_3  S_3  
     e( 21 - 24) =    -26.49499  eV     4   -->   2 A_1  D_1  S_1  
     e( 21 - 24) =    -26.49499  eV     4   -->   2 B_1  D_3  S_3  
     e( 25 - 28) =    -26.49455  eV     4   -->   2 A_2  D_2  S_2  
     e( 25 - 28) =    -26.49455  eV     4   -->   2 B_2  D_4  S_4  
     e( 29 - 31) =    -26.46045  eV     3   --> A_1  D_1  S_1  
     e( 29 - 31) =    -26.46045  eV     3   -->   2 B_1  D_3  S_3  
     e( 32 - 32) =    -26.46030  eV     1   --> A_1  D_1  S_1  
     e( 33 - 36) =    -26.44134  eV     4   -->   2 A_2  D_2  S_2  
     e( 33 - 36) =    -26.44134  eV     4   -->   2 B_2  D_4  S_4  
     e( 37 - 40) =    -26.43699  eV     4   -->   2 A_1  D_1  S_1  
     e( 37 - 40) =    -26.43699  eV     4   -->   2 B_1  D_3  S_3  
     e( 41 - 41) =    -15.89202  eV     1   --> B_1  D_3  S_3  
     e( 42 - 42) =    -15.89156  eV     1   --> A_1  D_1  S_1  
     e( 43 - 43) =    -15.87859  eV     1   --> B_1  D_3  S_3  
     e( 44 - 44) =    -15.87770  eV     1   --> A_1  D_1  S_1  
     e( 45 - 45) =    -15.87534  eV     1   --> B_1  D_3  S_3  
     e( 46 - 46) =    -15.87316  eV     1   --> B_1  D_3  S_3  
     e( 47 - 47) =    -15.87253  eV     1   --> B_2  D_4  S_4  
     e( 48 - 48) =    -15.87147  eV     1   --> A_2  D_2  S_2  
     e( 49 - 49) =    -15.86783  eV     1   --> A_1  D_1  S_1  
     e( 50 - 50) =    -15.86514  eV     1   --> A_1  D_1  S_1  
     e( 51 - 51) =    -15.86446  eV     1   --> B_2  D_4  S_4  
     e( 52 - 52) =    -15.86348  eV     1   --> A_2  D_2  S_2  
     e( 53 - 53) =     -2.50090  eV     1   --> A_1  D_1  S_1  
     e( 54 - 54) =     -2.14002  eV     1   --> B_1  D_3  S_3  
     e( 55 - 55) =     -2.05677  eV     1   --> B_1  D_3  S_3  
     e( 56 - 56) =     -2.03034  eV     1   --> A_1  D_1  S_1  
     e( 57 - 57) =     -0.35396  eV     1   --> B_1  D_3  S_3  
     e( 58 - 58) =     -0.29650  eV     1   --> A_2  D_2  S_2  
     e( 59 - 59) =     -0.28778  eV     1   --> B_2  D_4  S_4  
     e( 60 - 60) =     -0.24738  eV     1   --> B_2  D_4  S_4  
     e( 61 - 61) =     -0.23928  eV     1   --> A_1  D_1  S_1  
     e( 62 - 62) =     -0.23224  eV     1   --> A_1  D_1  S_1  
     e( 63 - 63) =     -0.21944  eV     1   --> A_2  D_2  S_2  
     e( 64 - 64) =     -0.19224  eV     1   --> B_1  D_3  S_3  
     e( 65 - 65) =     -0.14041  eV     1   --> A_2  D_2  S_2  
     e( 66 - 66) =     -0.10866  eV     1   --> B_2  D_4  S_4  
     e( 67 - 67) =     -0.08676  eV     1   --> A_1  D_1  S_1  
     e( 68 - 68) =     -0.05356  eV     1   --> B_1  D_3  S_3  
     e( 69 - 69) =     -0.04319  eV     1   --> A_1  D_1  S_1  
     e( 70 - 70) =     -0.03512  eV     1   --> B_1  D_3  S_3  
     e( 71 - 71) =      0.00086  eV     1   --> A_1  D_1  S_1  
     e( 72 - 72) =      0.10328  eV     1   --> A_2  D_2  S_2  
     e( 73 - 73) =      0.10809  eV     1   --> B_2  D_4  S_4  
     e( 74 - 74) =      0.25096  eV     1   --> B_1  D_3  S_3  
     e( 75 - 75) =      0.32676  eV     1   --> A_1  D_1  S_1  
     e( 76 - 76) =      0.37594  eV     1   --> B_1  D_3  S_3  
     e( 77 - 77) =      3.50314  eV     1   --> B_1  D_3  S_3  
     e( 78 - 78) =      4.02756  eV     1   --> A_1  D_1  S_1  
     e( 79 - 79) =      5.11527  eV     1   --> B_1  D_3  S_3  
     e( 80 - 80) =      5.64931  eV     1   --> A_1  D_1  S_1  
     e( 81 - 81) =      6.10044  eV     1   --> B_1  D_3  S_3  
     e( 82 - 82) =      6.56184  eV     1   --> B_2  D_4  S_4  
     e( 83 - 83) =      7.53478  eV     1   --> A_2  D_2  S_2  
     e( 84 - 84) =      7.56417  eV     1   --> A_1  D_1  S_1  
     e( 85 - 85) =      7.75847  eV     1   --> A_2  D_2  S_2  
     e( 86 - 86) =      7.76120  eV     1   --> A_1  D_1  S_1  
     e( 87 - 87) =      8.24916  eV     1   --> B_1  D_3  S_3  
     e( 88 - 88) =      8.39489  eV     1   --> B_2  D_4  S_4  
     e( 89 - 89) =      8.57233  eV     1   --> A_1  D_1  S_1  
     e( 90 - 90) =      8.77932  eV     1   --> B_1  D_3  S_3  
     e( 91 - 91) =      9.70526  eV     1   --> A_1  D_1  S_1  
     e( 92 - 92) =     10.44382  eV     1   --> B_1  D_3  S_3  
     e( 93 - 93) =     11.55114  eV     1   --> B_1  D_3  S_3  
     e( 94 - 94) =     12.12077  eV     1   --> A_1  D_1  S_1  
     e( 95 - 95) =     12.31809  eV     1   --> A_2  D_2  S_2  
     e( 96 - 96) =     12.47233  eV     1   --> A_1  D_1  S_1  
     e( 97 - 97) =     12.55551  eV     1   --> B_2  D_4  S_4  
     e( 98 - 98) =     12.82381  eV     1   --> B_1  D_3  S_3  
     e( 99 - 99) =     13.38696  eV     1   --> A_1  D_1  S_1  
     e(100 -100) =     13.45129  eV     1   --> A_1  D_1  S_1  
     e(101 -101) =     13.57412  eV     1   --> B_1  D_3  S_3  
     e(102 -102) =     14.03574  eV     1   --> B_1  D_3  S_3  
     e(103 -103) =     14.16566  eV     1   --> A_2  D_2  S_2  
     e(104 -104) =     14.27503  eV     1   --> B_1  D_3  S_3  
     e(105 -105) =     14.53814  eV     1   --> A_1  D_1  S_1  
     e(106 -106) =     14.96486  eV     1   --> B_2  D_4  S_4  

 **************************************************************************

 **************************************************************************

                    xk=(   0.09167,   0.00000,   0.00000  )

     Band symmetry, C_2v (mm2)  point group:

     e(  1 -  2) =    -94.22560  eV     2   --> A_1  D_1  S_1  
     e(  1 -  2) =    -94.22560  eV     2   --> B_1  D_3  S_3  
     e(  3 -  4) =    -94.22543  eV     2   --> A_1  D_1  S_1  
     e(  3 -  4) =    -94.22543  eV     2   --> B_1  D_3  S_3  
     e(  5 -  6) =    -55.28520  eV     2   --> A_2  D_2  S_2  
     e(  5 -  6) =    -55.28520  eV     2   --> B_2  D_4  S_4  
     e(  7 -  8) =    -55.28329  eV     2   --> A_2  D_2  S_2  
     e(  7 -  8) =    -55.28329  eV     2   --> B_2  D_4  S_4  
     e(  9 - 10) =    -55.27765  eV     2   --> A_1  D_1  S_1  
     e(  9 - 10) =    -55.27765  eV     2   --> B_1  D_3  S_3  
     e( 11 - 12) =    -55.27551  eV     2   --> A_1  D_1  S_1  
     e( 11 - 12) =    -55.27551  eV     2   --> B_1  D_3  S_3  
     e( 13 - 14) =    -55.26731  eV     2   --> A_1  D_1  S_1  
     e( 13 - 14) =    -55.26731  eV     2   --> B_1  D_3  S_3  
     e( 15 - 16) =    -55.26717  eV     2   --> A_1  D_1  S_1  
     e( 15 - 16) =    -55.26717  eV     2   --> B_1  D_3  S_3  
     e( 17 - 17) =    -43.94335  eV     1   --> A_1  D_1  S_1  
     e( 18 - 18) =    -43.94314  eV     1   --> B_1  D_3  S_3  
     e( 19 - 19) =    -43.94244  eV     1   --> A_1  D_1  S_1  
     e( 20 - 20) =    -43.94224  eV     1   --> B_1  D_3  S_3  
     e( 21 - 24) =    -26.49499  eV     4   -->   2 A_1  D_1  S_1  
     e( 21 - 24) =    -26.49499  eV     4   -->   2 B_1  D_3  S_3  
     e( 25 - 28) =    -26.49455  eV     4   -->   2 A_2  D_2  S_2  
     e( 25 - 28) =    -26.49455  eV     4   -->   2 B_2  D_4  S_4  
     e( 29 - 31) =    -26.46045  eV     3   --> A_1  D_1  S_1  
     e( 29 - 31) =    -26.46045  eV     3   -->   2 B_1  D_3  S_3  
     e( 32 - 32) =    -26.46030  eV     1   --> A_1  D_1  S_1  
     e( 33 - 36) =    -26.44134  eV     4   -->   2 A_2  D_2  S_2  
     e( 33 - 36) =    -26.44134  eV     4   -->   2 B_2  D_4  S_4  
     e( 37 - 40) =    -26.43699  eV     4   -->   2 A_1  D_1  S_1  
     e( 37 - 40) =    -26.43699  eV     4   -->   2 B_1  D_3  S_3  
     e( 41 - 41) =    -15.89202  eV     1   --> B_1  D_3  S_3  
     e( 42 - 42) =    -15.89157  eV     1   --> A_1  D_1  S_1  
     e( 43 - 43) =    -15.87858  eV     1   --> B_1  D_3  S_3  
     e( 44 - 44) =    -15.87770  eV     1   --> A_1  D_1  S_1  
     e( 45 - 45) =    -15.87532  eV     1   --> B_1  D_3  S_3  
     e( 46 - 46) =    -15.87312  eV     1   --> B_1  D_3  S_3  
     e( 47 - 47) =    -15.87253  eV     1   --> B_2  D_4  S_4  
     e( 48 - 48) =    -15.87148  eV     1   --> A_2  D_2  S_2  
     e( 49 - 49) =    -15.86786  eV     1   --> A_1  D_1  S_1  
     e( 50 - 50) =    -15.86517  eV     1   --> A_1  D_1  S_1  
[...]

 **************************************************************************

                    xk=(   0.00000,   0.84639,   0.45204  )

     zone border point and non-symmorphic group 
     symmetry decomposition not available

 **************************************************************************

 **************************************************************************

                    xk=(   0.00000,   0.84639,   0.45983  )

     zone border point and non-symmorphic group 
     symmetry decomposition not available

 **************************************************************************

 **************************************************************************

                    xk=(   0.00000,   0.84639,   0.46763  )

     zone border point and non-symmorphic group 
     symmetry decomposition not available

 **************************************************************************

 **************************************************************************

                    xk=(   0.50000,   0.84639,   0.00000  )

     zone border point and non-symmorphic group 
     symmetry decomposition not available

 **************************************************************************

 **************************************************************************

                    xk=(   0.50000,   0.84639,   0.00779  )

     zone border point and non-symmorphic group 
     symmetry decomposition not available

 **************************************************************************

 **************************************************************************

                    xk=(   0.50000,   0.84639,   0.01559  )

     zone border point and non-symmorphic group 
     symmetry decomposition not available

 **************************************************************************

 **************************************************************************

                    xk=(   0.50000,   0.84639,   0.02338  )

     zone border point and non-symmorphic group 
     symmetry decomposition not available

 **************************************************************************

 **************************************************************************

                    xk=(   0.50000,   0.84639,   0.03118  )

     zone border point and non-symmorphic group 
     symmetry decomposition not available

 **************************************************************************

 **************************************************************************

                    xk=(   0.50000,   0.84639,   0.03897  )

     zone border point and non-symmorphic group 
     symmetry decomposition not available

 **************************************************************************

 **************************************************************************

                    xk=(   0.50000,   0.84639,   0.04676  )

     zone border point and non-symmorphic group 
     symmetry decomposition not available

 **************************************************************************

 **************************************************************************

                    xk=(   0.50000,   0.84639,   0.05456  )

     zone border point and non-symmorphic group 
     symmetry decomposition not available

 **************************************************************************

 **************************************************************************

                    xk=(   0.50000,   0.84639,   0.06235  )

     zone border point and non-symmorphic group 
     symmetry decomposition not available

 **************************************************************************

 **************************************************************************

                    xk=(   0.50000,   0.84639,   0.07014  )

     zone border point and non-symmorphic group 
     symmetry decomposition not available

 **************************************************************************

 **************************************************************************

                    xk=(   0.50000,   0.84639,   0.07794  )

     zone border point and non-symmorphic group 
     symmetry decomposition not available

 **************************************************************************

 **************************************************************************

                    xk=(   0.50000,   0.84639,   0.08573  )

     zone border point and non-symmorphic group 
     symmetry decomposition not available

 **************************************************************************

 **************************************************************************

                    xk=(   0.50000,   0.84639,   0.09353  )

     zone border point and non-symmorphic group 
     symmetry decomposition not available

 **************************************************************************

 **************************************************************************

                    xk=(   0.50000,   0.84639,   0.10132  )

     zone border point and non-symmorphic group 
     symmetry decomposition not available

 **************************************************************************

 **************************************************************************

                    xk=(   0.50000,   0.84639,   0.10911  )

     zone border point and non-symmorphic group 
     symmetry decomposition not available

 **************************************************************************

 **************************************************************************

                    xk=(   0.50000,   0.84639,   0.11691  )

     zone border point and non-symmorphic group 
     symmetry decomposition not available

 **************************************************************************

 **************************************************************************

                    xk=(   0.50000,   0.84639,   0.12470  )

     zone border point and non-symmorphic group 
     symmetry decomposition not available

 **************************************************************************

 **************************************************************************

                    xk=(   0.50000,   0.84639,   0.13249  )

     zone border point and non-symmorphic group 
     symmetry decomposition not available

 **************************************************************************

 **************************************************************************

                    xk=(   0.50000,   0.84639,   0.14029  )

     zone border point and non-symmorphic group 
     symmetry decomposition not available

 **************************************************************************

 **************************************************************************

                    xk=(   0.50000,   0.84639,   0.14808  )

     zone border point and non-symmorphic group 
     symmetry decomposition not available

 **************************************************************************

 **************************************************************************

                    xk=(   0.50000,   0.84639,   0.15588  )

     zone border point and non-symmorphic group 
     symmetry decomposition not available

 **************************************************************************

 **************************************************************************

                    xk=(   0.50000,   0.84639,   0.16367  )

     zone border point and non-symmorphic group 
     symmetry decomposition not available

 **************************************************************************

 **************************************************************************

                    xk=(   0.50000,   0.84639,   0.17146  )

     zone border point and non-symmorphic group 
     symmetry decomposition not available

 **************************************************************************

 **************************************************************************

                    xk=(   0.50000,   0.84639,   0.17926  )

     zone border point and non-symmorphic group 
     symmetry decomposition not available

 **************************************************************************

 **************************************************************************

                    xk=(   0.50000,   0.84639,   0.18705  )

     zone border point and non-symmorphic group 
     symmetry decomposition not available

 **************************************************************************

 **************************************************************************

                    xk=(   0.50000,   0.84639,   0.19485  )

     zone border point and non-symmorphic group 
     symmetry decomposition not available

 **************************************************************************

 **************************************************************************

                    xk=(   0.50000,   0.84639,   0.20264  )

     zone border point and non-symmorphic group 
     symmetry decomposition not available

 **************************************************************************

 **************************************************************************

                    xk=(   0.50000,   0.84639,   0.21043  )

     zone border point and non-symmorphic group 
     symmetry decomposition not available

 **************************************************************************

 **************************************************************************

                    xk=(   0.50000,   0.84639,   0.21823  )

     zone border point and non-symmorphic group 
     symmetry decomposition not available

 **************************************************************************

 **************************************************************************

                    xk=(   0.50000,   0.84639,   0.22602  )

     zone border point and non-symmorphic group 
     symmetry decomposition not available

 **************************************************************************

 **************************************************************************

                    xk=(   0.50000,   0.84639,   0.23381  )

     zone border point and non-symmorphic group 
     symmetry decomposition not available

 **************************************************************************

 **************************************************************************

                    xk=(   0.50000,   0.84639,   0.24161  )

     zone border point and non-symmorphic group 
     symmetry decomposition not available

 **************************************************************************

 **************************************************************************

                    xk=(   0.50000,   0.84639,   0.24940  )

     zone border point and non-symmorphic group 
     symmetry decomposition not available

 **************************************************************************

 **************************************************************************

                    xk=(   0.50000,   0.84639,   0.25720  )

     zone border point and non-symmorphic group 
     symmetry decomposition not available

 **************************************************************************

 **************************************************************************

                    xk=(   0.50000,   0.84639,   0.26499  )

     zone border point and non-symmorphic group 
     symmetry decomposition not available

 **************************************************************************

 **************************************************************************

                    xk=(   0.50000,   0.84639,   0.27278  )

     zone border point and non-symmorphic group 
     symmetry decomposition not available

 **************************************************************************

 **************************************************************************

                    xk=(   0.50000,   0.84639,   0.28058  )

     zone border point and non-symmorphic group 
     symmetry decomposition not available

 **************************************************************************

 **************************************************************************

                    xk=(   0.50000,   0.84639,   0.28837  )

     zone border point and non-symmorphic group 
     symmetry decomposition not available

 **************************************************************************

 **************************************************************************

                    xk=(   0.50000,   0.84639,   0.29616  )

     zone border point and non-symmorphic group 
     symmetry decomposition not available

 **************************************************************************

 **************************************************************************

                    xk=(   0.50000,   0.84639,   0.30396  )

     zone border point and non-symmorphic group 
     symmetry decomposition not available

 **************************************************************************

 **************************************************************************

                    xk=(   0.50000,   0.84639,   0.31175  )

     zone border point and non-symmorphic group 
     symmetry decomposition not available

 **************************************************************************

 **************************************************************************

                    xk=(   0.50000,   0.84639,   0.31955  )

     zone border point and non-symmorphic group 
     symmetry decomposition not available

 **************************************************************************

 **************************************************************************

                    xk=(   0.50000,   0.84639,   0.32734  )

     zone border point and non-symmorphic group 
     symmetry decomposition not available

 **************************************************************************

 **************************************************************************

                    xk=(   0.50000,   0.84639,   0.33513  )

     zone border point and non-symmorphic group 
     symmetry decomposition not available

 **************************************************************************

 **************************************************************************

                    xk=(   0.50000,   0.84639,   0.34293  )

     zone border point and non-symmorphic group 
     symmetry decomposition not available

 **************************************************************************

 **************************************************************************

                    xk=(   0.50000,   0.84639,   0.35072  )

     zone border point and non-symmorphic group 
     symmetry decomposition not available

 **************************************************************************

 **************************************************************************

                    xk=(   0.50000,   0.84639,   0.35852  )

     zone border point and non-symmorphic group 
     symmetry decomposition not available

 **************************************************************************

 **************************************************************************

                    xk=(   0.50000,   0.84639,   0.36631  )

     zone border point and non-symmorphic group 
     symmetry decomposition not available

 **************************************************************************

 **************************************************************************

                    xk=(   0.50000,   0.84639,   0.37410  )

     zone border point and non-symmorphic group 
     symmetry decomposition not available

 **************************************************************************

 **************************************************************************

                    xk=(   0.50000,   0.84639,   0.38190  )

     zone border point and non-symmorphic group 
     symmetry decomposition not available

 **************************************************************************

 **************************************************************************

                    xk=(   0.50000,   0.84639,   0.38969  )

     zone border point and non-symmorphic group 
     symmetry decomposition not available

 **************************************************************************

 **************************************************************************

                    xk=(   0.50000,   0.84639,   0.39748  )

     zone border point and non-symmorphic group 
     symmetry decomposition not available

 **************************************************************************

 **************************************************************************

                    xk=(   0.50000,   0.84639,   0.40528  )

     zone border point and non-symmorphic group 
     symmetry decomposition not available

 **************************************************************************

 **************************************************************************

                    xk=(   0.50000,   0.84639,   0.41307  )

     zone border point and non-symmorphic group 
     symmetry decomposition not available

 **************************************************************************

 **************************************************************************

                    xk=(   0.50000,   0.84639,   0.42087  )

     zone border point and non-symmorphic group 
     symmetry decomposition not available

 **************************************************************************

 **************************************************************************

                    xk=(   0.50000,   0.84639,   0.42866  )

     zone border point and non-symmorphic group 
     symmetry decomposition not available

 **************************************************************************

 **************************************************************************

                    xk=(   0.50000,   0.84639,   0.43645  )

     zone border point and non-symmorphic group 
     symmetry decomposition not available

 **************************************************************************

 **************************************************************************

                    xk=(   0.50000,   0.84639,   0.44425  )

     zone border point and non-symmorphic group 
     symmetry decomposition not available

 **************************************************************************

 **************************************************************************

                    xk=(   0.50000,   0.84639,   0.45204  )

     zone border point and non-symmorphic group 
     symmetry decomposition not available

 **************************************************************************

 **************************************************************************

                    xk=(   0.50000,   0.84639,   0.45983  )

     zone border point and non-symmorphic group 
     symmetry decomposition not available

 **************************************************************************

 **************************************************************************

                    xk=(   0.50000,   0.84639,   0.46763  )

     zone border point and non-symmorphic group 
     symmetry decomposition not available

 **************************************************************************
 
     BANDS        :   6m11.03s CPU   6m24.64s WALL

 
   This run was terminated on:  22:23:45  29Nov2020            

=------------------------------------------------------------------------------=
   JOB DONE.
=------------------------------------------------------------------------------=
