mpijob CMD    : mpirun -f /tmp/mpiexec.params.k050801.14927
mpijob PARAMS : -d /home/k0508/k050801/research/dft/qeirreps/PbPt3_test r1i0n18 24
        omplace -nt 1 "/home/k0508/k050801/research/dft/qe-6.2/bin/bands.x"

SGI MPT Placement option
--------------------------
omplace -nt 1

Node   MPI
------------
r1i0n18 24


     Program BANDS v.6.2 (svn rev. 13949:13950) starts on 15Apr2020 at 20:26:26 

     This program is part of the open-source Quantum ESPRESSO suite
     for quantum simulation of materials; please cite
         "P. Giannozzi et al., J. Phys.:Condens. Matter 21 395502 (2009);
         "P. Giannozzi et al., J. Phys.:Condens. Matter 29 465901 (2017);
          URL http://www.quantum-espresso.org", 
     in publications or presentations arising from this work. More details at
     http://www.quantum-espresso.org/quote

     Parallel version (MPI), running on    24 processors

     MPI processes distributed on     1 nodes
     R & G space division:  proc/nbgrp/npool/nimage =      24

     Reading data from directory:
     /work/k0508/k050801/band/PbPt3/PbPt3.save

     IMPORTANT: XC functional enforced from input :
     Exchange-correlation      = PBE ( 1  4  3  4 0 0)
     Any further DFT definition will be discarded
     Please, verify this is what you really want

     Message from routine readpp:
     file /work/k0508/k050801/band/PbPt3/PbPt3.save/Pt.upf not found
     Message from routine readpp:
     file /work/k0508/k050801/band/PbPt3/PbPt3.save/Pb.upf not found
 
     Parallelization info
     --------------------
     sticks:   dense  smooth     PW     G-vecs:    dense   smooth      PW
     Min          80      80     23                 2674     2674     407
     Max          81      81     24                 2679     2679     410
     Sum        1941    1941    553                64229    64229    9795
 
     high-symmetry point:  0.0000 0.0000 0.0000   x coordinate   0.0000
     high-symmetry point:  0.0000 0.5000 0.0000   x coordinate   0.5000
     high-symmetry point:  0.5000 0.5000 0.0000   x coordinate   1.0000
     high-symmetry point:  0.0000 0.0000 0.0000   x coordinate   1.7071
     high-symmetry point:  0.5000 0.5000 0.5000   x coordinate   2.5731
     high-symmetry point:  0.0000 0.5000 0.0000   x coordinate   3.2802
     high-symmetry point:  0.5000 0.5000 0.5000   x coordinate   3.2802
     high-symmetry point:  0.5000 0.5000 0.0000   x coordinate   3.7802

     Plottable bands (eV) written to file PbPt3.band.gnu
     Bands written to file PbPt3.band

 **************************************************************************

                    xk=(   0.00000,   0.00000,   0.00000  )

     double point group O_h (m-3m) 
     there are 16 classes and  6 irreducible representations
     the character table:

       E     -E    8C3   -8C3   3C2  6C4   -6C4   6C2' i     -i    8S6   -8S6 
                               -3C2              -6C2'                        
G_6+   2.00 -2.00  1.00 -1.00  0.00  1.41 -1.41  0.00  2.00 -2.00  1.00 -1.00
G_7+   2.00 -2.00  1.00 -1.00  0.00 -1.41  1.41  0.00  2.00 -2.00  1.00 -1.00
G_8+   4.00 -4.00 -1.00  1.00  0.00  0.00  0.00  0.00  4.00 -4.00 -1.00  1.00
G_6-   2.00 -2.00  1.00 -1.00  0.00  1.41 -1.41  0.00 -2.00  2.00 -1.00  1.00
G_7-   2.00 -2.00  1.00 -1.00  0.00 -1.41  1.41  0.00 -2.00  2.00 -1.00  1.00
G_8-   4.00 -4.00 -1.00  1.00  0.00  0.00  0.00  0.00 -4.00  4.00  1.00 -1.00

        3s_h 6S4   -6S4   6s_d
       -3s_h             -6s_d
G_6+   0.00  1.41 -1.41  0.00
G_7+   0.00 -1.41  1.41  0.00
G_8+   0.00  0.00  0.00  0.00
G_6-   0.00 -1.41  1.41  0.00
G_7-   0.00  1.41 -1.41  0.00
G_8-   0.00  0.00  0.00  0.00

     the symmetry operations in each class and the name of the first element:

     E             1
                                                                 
     -E           -1
                                                                 
     8C3          17   19   20   18   24   21   22   23
                                                                 
     -8C3        -17  -19  -20  -18  -24  -21  -22  -23
                                                                 
      3C2 -3C2     2   -2    4   -4    3   -3
                                                                 
     6C4           7    8   15   16   12   11
                                                                 
     -6C4         -7   -8  -15  -16  -12  -11
                                                                 
      6C2'-6C2'    5   -5   -6    6   14  -13  -14   13   10   -9  -10    9
                                                                 
     i            25
                                                                 
     -i          -25
                                                                 
     8S6          41   43   44   42   48   45   46   47
                                                                 
     -8S6        -41  -43  -44  -42  -48  -45  -46  -47
                                                                 
      3s_h-3s_h   26  -26   28  -28   27  -27
                                                                 
     6S4          31   32   39   40   36   35
                                                                 
     -6S4        -31  -32  -39  -40  -36  -35
                                                                 
      6s_d-6s_d   29  -29  -30   30   38  -37  -38   37   34  -33  -34   33
                                                                 

     Band symmetry, O_h (m-3m)  double point group:

     e(  1 -  2) =    -77.90479  eV     2   --> G_6+           
     e(  3 -  6) =    -77.88940  eV     4   --> G_8+           
     e(  7 - 10) =    -43.21037  eV     4   --> G_8-           
     e( 11 - 12) =    -43.15532  eV     2   --> G_6-           
     e( 13 - 14) =    -28.35503  eV     2   --> G_6-           
     e( 15 - 18) =    -28.31785  eV     4   --> G_8-           
     e( 19 - 20) =    -28.25072  eV     2   --> G_7-           
     e( 21 - 24) =    -28.13649  eV     4   --> G_8-           
     e( 25 - 28) =      1.56016  eV     4   --> G_8+           
     e( 29 - 32) =      4.06589  eV     4   --> G_8+           
     e( 33 - 34) =      4.10092  eV     2   --> G_7+           
     e( 35 - 36) =      8.30848  eV     2   --> G_6+           
     e( 37 - 38) =     13.66017  eV     2   --> G_6+           
     e( 39 - 42) =     15.08409  eV     4   --> G_8+           
     e( 43 - 44) =     15.12687  eV     2   --> G_7+           
     e( 45 - 48) =     15.19121  eV     4   --> G_8+           
     e( 49 - 52) =     17.65262  eV     4   --> G_8+           
     e( 53 - 54) =     18.16577  eV     2   --> G_7+           
     e( 55 - 56) =     18.43675  eV     2   --> G_6-           
     e( 57 - 60) =     19.05888  eV     4   --> G_8+           
     e( 61 - 64) =     19.46659  eV     4   --> G_8-           
     e( 65 - 66) =     19.68562  eV     2   --> G_6+           
     e( 67 - 68) =     19.79373  eV     2   --> G_7+           
     e( 69 - 72) =     20.40989  eV     4   --> G_8+           
     e( 73 - 74) =     21.50199  eV     2   --> G_6+           
     e( 75 - 78) =     25.87439  eV     4   --> G_8+           
     e( 79 - 80) =     27.47678  eV     2   --> G_6-           
     e( 81 - 82) =     27.63128  eV     2   -->   ?

 **************************************************************************

 **************************************************************************

                    xk=(   0.00000,   0.00833,   0.00000  )

     double point group C_4v (4mm) 
     there are  7 classes and  2 irreducible representations
     the character table:

       E     -E    2C4   -2C4   C2    2s_v  2s_d
                               -C2   -2s_v -2s_d
G_6    2.00 -2.00  1.41 -1.41  0.00  0.00  0.00
G_7    2.00 -2.00 -1.41  1.41  0.00  0.00  0.00

     the symmetry operations in each class and the name of the first element:

     E             1
                                                                 
     -E           -1
                                                                 
     2C4           3    4
                                                                 
     -2C4         -3   -4
                                                                 
      C2  -C2      2   -2
                                                                 
      2s_v-2s_v    5   -5    6   -6
                                                                 
      2s_d-2s_d    7   -7   -8    8
                                                                 

     Band symmetry, C_4v (4mm)  double point group:

     e(  1 -  2) =    -77.90479  eV     2   --> G_6   D_6      
     e(  3 -  6) =    -77.88941  eV     4   --> G_6   D_6      
     e(  3 -  6) =    -77.88941  eV     4   --> G_7   D_7      
     e(  7 - 10) =    -43.21037  eV     4   --> G_6   D_6      
     e(  7 - 10) =    -43.21037  eV     4   --> G_7   D_7      
     e( 11 - 12) =    -43.15532  eV     2   --> G_6   D_6      
     e( 13 - 14) =    -28.35501  eV     2   --> G_6   D_6      
     e( 15 - 18) =    -28.31784  eV     4   --> G_6   D_6      
     e( 15 - 18) =    -28.31784  eV     4   --> G_7   D_7      
     e( 19 - 20) =    -28.25072  eV     2   --> G_7   D_7      
     e( 21 - 24) =    -28.13653  eV     4   --> G_6   D_6      
     e( 21 - 24) =    -28.13653  eV     4   --> G_7   D_7      
     e( 25 - 28) =      1.56018  eV     4   --> G_6   D_6      
     e( 25 - 28) =      1.56018  eV     4   --> G_7   D_7      
     e( 29 - 32) =      4.06591  eV     4   --> G_6   D_6      
     e( 29 - 32) =      4.06591  eV     4   --> G_7   D_7      
     e( 33 - 34) =      4.10094  eV     2   --> G_7   D_7      
     e( 35 - 36) =      8.30916  eV     2   --> G_6   D_6      
     e( 37 - 38) =     13.66060  eV     2   --> G_6   D_6      
     e( 39 - 40) =     15.08409  eV     2   --> G_6   D_6      
     e( 41 - 42) =     15.08432  eV     2   --> G_7   D_7      
     e( 43 - 44) =     15.12701  eV     2   --> G_7   D_7      
     e( 45 - 46) =     15.19081  eV     2   --> G_6   D_6      
     e( 47 - 48) =     15.19166  eV     2   --> G_7   D_7      
     e( 49 - 50) =     17.64837  eV     2   --> G_6   D_6      
     e( 51 - 52) =     17.65194  eV     2   --> G_7   D_7      
     e( 53 - 54) =     18.16449  eV     2   --> G_7   D_7      
     e( 55 - 56) =     18.43975  eV     2   --> G_6   D_6      
     e( 57 - 58) =     19.05795  eV     2   --> G_7   D_7      
     e( 59 - 60) =     19.05809  eV     2   --> G_6   D_6      
     e( 61 - 62) =     19.45104  eV     2   --> G_6   D_6      
     e( 63 - 64) =     19.46753  eV     2   --> G_7   D_7      
     e( 65 - 66) =     19.69660  eV     2   --> G_6   D_6      
     e( 67 - 68) =     19.79335  eV     2   --> G_7   D_7      
     e( 69 - 70) =     20.41114  eV     2   --> G_6   D_6      
     e( 71 - 72) =     20.41143  eV     2   --> G_7   D_7      
     e( 73 - 74) =     21.50577  eV     2   --> G_6   D_6      
     e( 75 - 76) =     25.87297  eV     2   --> G_6   D_6      
     e( 77 - 78) =     25.87410  eV     2   --> G_7   D_7      
     e( 79 - 80) =     27.47953  eV     2   --> G_6   D_6      
     e( 81 - 82) =     27.63106  eV     2   --> G_7   D_7      

 **************************************************************************

 **************************************************************************

                    xk=(   0.00000,   0.01667,   0.00000  )

     Band symmetry, C_4v (4mm)  double point group:

     e(  1 -  2) =    -77.90478  eV     2   --> G_6   D_6      
     e(  3 -  6) =    -77.88941  eV     4   --> G_6   D_6      
     e(  3 -  6) =    -77.88941  eV     4   --> G_7   D_7      
     e(  7 - 10) =    -43.21037  eV     4   --> G_6   D_6      
     e(  7 - 10) =    -43.21037  eV     4   --> G_7   D_7      
     e( 11 - 12) =    -43.15535  eV     2   --> G_6   D_6      
     e( 13 - 14) =    -28.35493  eV     2   --> G_6   D_6      
     e( 15 - 18) =    -28.31782  eV     4   --> G_6   D_6      
     e( 15 - 18) =    -28.31782  eV     4   --> G_7   D_7      
     e( 19 - 20) =    -28.25074  eV     2   --> G_7   D_7      
     e( 21 - 24) =    -28.13664  eV     4   --> G_6   D_6      
     e( 21 - 24) =    -28.13664  eV     4   --> G_7   D_7      
     e( 25 - 28) =      1.56022  eV     4   --> G_6   D_6      
     e( 25 - 28) =      1.56022  eV     4   --> G_7   D_7      
     e( 29 - 30) =      4.06597  eV     2   --> G_7   D_7      
     e( 31 - 32) =      4.06612  eV     2   --> G_6   D_6      
     e( 33 - 34) =      4.10100  eV     2   --> G_7   D_7      
     e( 35 - 36) =      8.31123  eV     2   --> G_6   D_6      
     e( 37 - 38) =     13.66188  eV     2   --> G_6   D_6      
     e( 39 - 40) =     15.08407  eV     2   --> G_6   D_6      
     e( 41 - 42) =     15.08499  eV     2   --> G_7   D_7      
     e( 43 - 44) =     15.12741  eV     2   --> G_7   D_7      
     e( 45 - 46) =     15.18961  eV     2   --> G_6   D_6      
     e( 47 - 48) =     15.19300  eV     2   --> G_7   D_7      
     e( 49 - 50) =     17.63587  eV     2   --> G_6   D_6      
     e( 51 - 52) =     17.64988  eV     2   --> G_7   D_7      
     e( 53 - 54) =     18.16069  eV     2   --> G_7   D_7      
     e( 55 - 56) =     18.44846  eV     2   --> G_6   D_6      
     e( 57 - 58) =     19.05522  eV     2   --> G_7   D_7      
     e( 59 - 60) =     19.05569  eV     2   --> G_6   D_6      
     e( 61 - 62) =     19.41144  eV     2   --> G_6   D_6      
     e( 63 - 64) =     19.47026  eV     2   --> G_7   D_7      
     e( 65 - 66) =     19.72276  eV     2   --> G_6   D_6      
     e( 67 - 68) =     19.79219  eV     2   --> G_7   D_7      
     e( 69 - 70) =     20.41487  eV     2   --> G_6   D_6      
     e( 71 - 72) =     20.41611  eV     2   --> G_7   D_7      
     e( 73 - 74) =     21.51697  eV     2   --> G_6   D_6      
     e( 75 - 76) =     25.86878  eV     2   --> G_6   D_6      
     e( 77 - 78) =     25.87322  eV     2   --> G_7   D_7      
     e( 79 - 80) =     27.48766  eV     2   --> G_6   D_6      
     e( 81 - 82) =     27.63039  eV     2   --> G_7   D_7      

 **************************************************************************

 **************************************************************************

                    xk=(   0.00000,   0.02500,   0.00000  )

     Band symmetry, C_4v (4mm)  double point group:

     e(  1 -  2) =    -77.90477  eV     2   --> G_6   D_6      
     e(  3 -  6) =    -77.88942  eV     4   --> G_6   D_6      
     e(  3 -  6) =    -77.88942  eV     4   --> G_7   D_7      
     e(  7 - 10) =    -43.21037  eV     4   --> G_6   D_6      
     e(  7 - 10) =    -43.21037  eV     4   --> G_7   D_7      
     e( 11 - 12) =    -43.15539  eV     2   --> G_6   D_6      
     e( 13 - 14) =    -28.35480  eV     2   --> G_6   D_6      
     e( 15 - 18) =    -28.31778  eV     4   --> G_6   D_6      
     e( 15 - 18) =    -28.31778  eV     4   --> G_7   D_7      
     e( 19 - 20) =    -28.25076  eV     2   --> G_7   D_7      
     e( 21 - 22) =    -28.13682  eV     2   --> G_6   D_6      
     e( 23 - 24) =    -28.13661  eV     2   --> G_7   D_7      
     e( 25 - 26) =      1.56028  eV     2   --> G_7   D_7      
     e( 27 - 28) =      1.56043  eV     2   --> G_6   D_6      
     e( 29 - 30) =      4.06608  eV     2   --> G_7   D_7      
     e( 31 - 32) =      4.06642  eV     2   --> G_6   D_6      
     e( 33 - 34) =      4.10109  eV     2   --> G_7   D_7      
     e( 35 - 36) =      8.31466  eV     2   --> G_6   D_6      
     e( 37 - 38) =     13.66402  eV     2   --> G_6   D_6      
     e( 39 - 40) =     15.08397  eV     2   --> G_6   D_6      
     e( 41 - 42) =     15.08610  eV     2   --> G_7   D_7      
     e( 43 - 44) =     15.12808  eV     2   --> G_7   D_7      
     e( 45 - 46) =     15.18766  eV     2   --> G_6   D_6      
     e( 47 - 48) =     15.19525  eV     2   --> G_7   D_7      
     e( 49 - 50) =     17.61581  eV     2   --> G_6   D_6      
     e( 51 - 52) =     17.64645  eV     2   --> G_7   D_7      
     e( 53 - 54) =     18.15448  eV     2   --> G_7   D_7      
     e( 55 - 56) =     18.46200  eV     2   --> G_6   D_6      
     e( 57 - 58) =     19.05085  eV     2   --> G_7   D_7      
     e( 59 - 60) =     19.05153  eV     2   --> G_6   D_6      
     e( 61 - 62) =     19.35838  eV     2   --> G_6   D_6      
     e( 63 - 64) =     19.47444  eV     2   --> G_7   D_7      
     e( 65 - 66) =     19.75425  eV     2   --> G_6   D_6      
     e( 67 - 68) =     19.79026  eV     2   --> G_7   D_7      
     e( 69 - 70) =     20.42095  eV     2   --> G_6   D_6      
     e( 71 - 72) =     20.42400  eV     2   --> G_7   D_7      
     e( 73 - 74) =     21.53523  eV     2   --> G_6   D_6      
     e( 75 - 76) =     25.86216  eV     2   --> G_6   D_6      
     e( 77 - 78) =     25.87175  eV     2   --> G_7   D_7      
     e( 79 - 80) =     27.50084  eV     2   --> G_6   D_6      
     e( 81 - 82) =     27.62924  eV     2   --> G_7   D_7      

 **************************************************************************

 **************************************************************************

                    xk=(   0.00000,   0.03333,   0.00000  )

     Band symmetry, C_4v (4mm)  double point group:

     e(  1 -  2) =    -77.90475  eV     2   --> G_6   D_6      
     e(  3 -  6) =    -77.88944  eV     4   --> G_6   D_6      
     e(  3 -  6) =    -77.88944  eV     4   --> G_7   D_7      
     e(  7 -  8) =    -43.21037  eV     2   --> G_7   D_7      
     e(  9 - 10) =    -43.21024  eV     2   --> G_6   D_6      
     e( 11 - 12) =    -43.15545  eV     2   --> G_6   D_6      
     e( 13 - 14) =    -28.35461  eV     2   --> G_6   D_6      
     e( 15 - 16) =    -28.31773  eV     2   --> G_6   D_6      
     e( 17 - 18) =    -28.31758  eV     2   --> G_7   D_7      
     e( 19 - 20) =    -28.25080  eV     2   --> G_7   D_7      
     e( 21 - 22) =    -28.13709  eV     2   --> G_6   D_6      
     e( 23 - 24) =    -28.13671  eV     2   --> G_7   D_7      
     e( 25 - 26) =      1.56037  eV     2   --> G_7   D_7      
     e( 27 - 28) =      1.56063  eV     2   --> G_6   D_6      
     e( 29 - 30) =      4.06624  eV     2   --> G_7   D_7      
     e( 31 - 32) =      4.06684  eV     2   --> G_6   D_6      
     e( 33 - 34) =      4.10122  eV     2   --> G_7   D_7      
     e( 35 - 36) =      8.31947  eV     2   --> G_6   D_6      
     e( 37 - 38) =     13.66699  eV     2   --> G_6   D_6      
     e( 39 - 40) =     15.08372  eV     2   --> G_6   D_6      
     e( 41 - 42) =     15.08763  eV     2   --> G_7   D_7      
     e( 43 - 44) =     15.12901  eV     2   --> G_7   D_7      
     e( 45 - 46) =     15.18502  eV     2   --> G_6   D_6      
     e( 47 - 48) =     15.19841  eV     2   --> G_7   D_7      
     e( 49 - 50) =     17.58916  eV     2   --> G_6   D_6      
     e( 51 - 52) =     17.64163  eV     2   --> G_7   D_7      
     e( 53 - 54) =     18.14599  eV     2   --> G_7   D_7      
     e( 55 - 56) =     18.47910  eV     2   --> G_6   D_6      
     e( 57 - 58) =     19.04508  eV     2   --> G_7   D_7      
     e( 59 - 60) =     19.04526  eV     2   --> G_6   D_6      
     e( 61 - 62) =     19.29837  eV     2   --> G_6   D_6      
     e( 63 - 64) =     19.47958  eV     2   --> G_7   D_7      
     e( 65 - 66) =     19.78588  eV     2   --> G_6   D_6      
     e( 67 - 68) =     19.78754  eV     2   --> G_7   D_7      
     e( 69 - 70) =     20.42923  eV     2   --> G_6   D_6      
     e( 71 - 72) =     20.43526  eV     2   --> G_7   D_7      
     e( 73 - 74) =     21.55996  eV     2   --> G_6   D_6      
     e( 75 - 76) =     25.85356  eV     2   --> G_6   D_6      
     e( 77 - 78) =     25.86970  eV     2   --> G_7   D_7      
     e( 79 - 80) =     27.51857  eV     2   --> G_6   D_6      
     e( 81 - 82) =     27.62754  eV     2   --> G_7   D_7      

 **************************************************************************

 **************************************************************************

                    xk=(   0.00000,   0.04167,   0.00000  )

     Band symmetry, C_4v (4mm)  double point group:

     e(  1 -  2) =    -77.90473  eV     2   --> G_6   D_6      
     e(  3 -  6) =    -77.88946  eV     4   --> G_6   D_6      
     e(  3 -  6) =    -77.88946  eV     4   --> G_7   D_7      
     e(  7 -  8) =    -43.21037  eV     2   --> G_7   D_7      
     e(  9 - 10) =    -43.21016  eV     2   --> G_6   D_6      
     e( 11 - 12) =    -43.15553  eV     2   --> G_6   D_6      
     e( 13 - 14) =    -28.35438  eV     2   --> G_6   D_6      
     e( 15 - 16) =    -28.31766  eV     2   --> G_6   D_6      
     e( 17 - 18) =    -28.31743  eV     2   --> G_7   D_7      
     e( 19 - 20) =    -28.25084  eV     2   --> G_7   D_7      
     e( 21 - 22) =    -28.13742  eV     2   --> G_6   D_6      
     e( 23 - 24) =    -28.13683  eV     2   --> G_7   D_7      
     e( 25 - 26) =      1.56048  eV     2   --> G_7   D_7      
     e( 27 - 28) =      1.56090  eV     2   --> G_6   D_6      
     e( 29 - 30) =      4.06643  eV     2   --> G_7   D_7      
     e( 31 - 32) =      4.06737  eV     2   --> G_6   D_6      
     e( 33 - 34) =      4.10139  eV     2   --> G_7   D_7      
     e( 35 - 36) =      8.32564  eV     2   --> G_6   D_6      
     e( 37 - 38) =     13.67079  eV     2   --> G_6   D_6      
     e( 39 - 40) =     15.08318  eV     2   --> G_6   D_6      
     e( 41 - 42) =     15.08956  eV     2   --> G_7   D_7      
     e( 43 - 44) =     15.13020  eV     2   --> G_7   D_7      
     e( 45 - 46) =     15.18180  eV     2   --> G_6   D_6      
     e( 47 - 48) =     15.20251  eV     2   --> G_7   D_7      
     e( 49 - 50) =     17.55700  eV     2   --> G_6   D_6      
     e( 51 - 52) =     17.63540  eV     2   --> G_7   D_7      
     e( 53 - 54) =     18.13545  eV     2   --> G_7   D_7      
     e( 55 - 56) =     18.49821  eV     2   --> G_6   D_6      
     e( 57 - 58) =     19.03612  eV     2   --> G_6   D_6      
     e( 59 - 60) =     19.03816  eV     2   --> G_7   D_7      
     e( 61 - 62) =     19.23557  eV     2   --> G_6   D_6      
     e( 63 - 64) =     19.48509  eV     2   --> G_7   D_7      
     e( 65 - 66) =     19.78401  eV     2   --> G_7   D_7      
     e( 67 - 68) =     19.81560  eV     2   --> G_6   D_6      
     e( 69 - 70) =     20.43954  eV     2   --> G_6   D_6      
     e( 71 - 72) =     20.45007  eV     2   --> G_7   D_7      
     e( 73 - 74) =     21.59037  eV     2   --> G_6   D_6      
     e( 75 - 76) =     25.84364  eV     2   --> G_6   D_6      
     e( 77 - 78) =     25.86707  eV     2   --> G_7   D_7      
     e( 79 - 80) =     27.54019  eV     2   --> G_6   D_6      
     e( 81 - 82) =     27.62523  eV     2   --> G_7   D_7      

 **************************************************************************

 **************************************************************************

                    xk=(   0.00000,   0.05000,   0.00000  )

     Band symmetry, C_4v (4mm)  double point group:

     e(  1 -  2) =    -77.90471  eV     2   --> G_6   D_6      
     e(  3 -  6) =    -77.88949  eV     4   --> G_6   D_6      
     e(  3 -  6) =    -77.88949  eV     4   --> G_7   D_7      
     e(  7 -  8) =    -43.21037  eV     2   --> G_7   D_7      
     e(  9 - 10) =    -43.21007  eV     2   --> G_6   D_6      
     e( 11 - 12) =    -43.15562  eV     2   --> G_6   D_6      
     e( 13 - 14) =    -28.35410  eV     2   --> G_6   D_6      
     e( 15 - 16) =    -28.31757  eV     2   --> G_6   D_6      
     e( 17 - 18) =    -28.31724  eV     2   --> G_7   D_7      
     e( 19 - 20) =    -28.25089  eV     2   --> G_7   D_7      
     e( 21 - 22) =    -28.13783  eV     2   --> G_6   D_6      
     e( 23 - 24) =    -28.13698  eV     2   --> G_7   D_7      
     e( 25 - 26) =      1.56063  eV     2   --> G_7   D_7      
     e( 27 - 28) =      1.56122  eV     2   --> G_6   D_6      
     e( 29 - 30) =      4.06667  eV     2   --> G_7   D_7      
     e( 31 - 32) =      4.06801  eV     2   --> G_6   D_6      
     e( 33 - 34) =      4.10160  eV     2   --> G_7   D_7      
     e( 35 - 36) =      8.33319  eV     2   --> G_6   D_6      
     e( 37 - 38) =     13.67540  eV     2   --> G_6   D_6      
     e( 39 - 40) =     15.08215  eV     2   --> G_6   D_6      
     e( 41 - 42) =     15.09187  eV     2   --> G_7   D_7      
     e( 43 - 44) =     15.13163  eV     2   --> G_7   D_7      
     e( 45 - 46) =     15.17815  eV     2   --> G_6   D_6      
     e( 47 - 48) =     15.20757  eV     2   --> G_7   D_7      
     e( 49 - 50) =     17.52036  eV     2   --> G_6   D_6      
     e( 51 - 52) =     17.62776  eV     2   --> G_7   D_7      
     e( 53 - 54) =     18.12309  eV     2   --> G_7   D_7      
     e( 55 - 56) =     18.51751  eV     2   --> G_6   D_6      
     e( 57 - 58) =     19.02233  eV     2   --> G_6   D_6      
     e( 59 - 60) =     19.03035  eV     2   --> G_7   D_7      
     e( 61 - 62) =     19.17414  eV     2   --> G_6   D_6      
     e( 63 - 64) =     19.49034  eV     2   --> G_7   D_7      
     e( 65 - 66) =     19.77966  eV     2   --> G_7   D_7      
     e( 67 - 68) =     19.84276  eV     2   --> G_6   D_6      
     e( 69 - 70) =     20.45173  eV     2   --> G_6   D_6      
     e( 71 - 72) =     20.46863  eV     2   --> G_7   D_7      
     e( 73 - 74) =     21.62552  eV     2   --> G_6   D_6      
     e( 75 - 76) =     25.83311  eV     2   --> G_6   D_6      
     e( 77 - 78) =     25.86386  eV     2   --> G_7   D_7      
     e( 79 - 80) =     27.56499  eV     2   --> G_6   D_6      
     e( 81 - 82) =     27.62220  eV     2   --> G_7   D_7      

 **************************************************************************

 **************************************************************************

                    xk=(   0.00000,   0.05833,   0.00000  )

     Band symmetry, C_4v (4mm)  double point group:

     e(  1 -  2) =    -77.90468  eV     2   --> G_6   D_6      
     e(  3 -  4) =    -77.88952  eV     2   --> G_6   D_6      
     e(  5 -  6) =    -77.88940  eV     2   --> G_7   D_7      
     e(  7 -  8) =    -43.21038  eV     2   --> G_7   D_7      
     e(  9 - 10) =    -43.20997  eV     2   --> G_6   D_6      
     e( 11 - 12) =    -43.15574  eV     2   --> G_6   D_6      
     e( 13 - 14) =    -28.35377  eV     2   --> G_6   D_6      
     e( 15 - 16) =    -28.31747  eV     2   --> G_6   D_6      
     e( 17 - 18) =    -28.31702  eV     2   --> G_7   D_7      
     e( 19 - 20) =    -28.25095  eV     2   --> G_7   D_7      
     e( 21 - 22) =    -28.13831  eV     2   --> G_6   D_6      
     e( 23 - 24) =    -28.13716  eV     2   --> G_7   D_7      
     e( 25 - 26) =      1.56079  eV     2   --> G_7   D_7      
     e( 27 - 28) =      1.56160  eV     2   --> G_6   D_6      
     e( 29 - 30) =      4.06695  eV     2   --> G_7   D_7      
     e( 31 - 32) =      4.06877  eV     2   --> G_6   D_6      
     e( 33 - 34) =      4.10185  eV     2   --> G_7   D_7      
     e( 35 - 36) =      8.34209  eV     2   --> G_6   D_6      
     e( 37 - 38) =     13.68079  eV     2   --> G_6   D_6      
     e( 39 - 40) =     15.08037  eV     2   --> G_6   D_6      
     e( 41 - 42) =     15.09454  eV     2   --> G_7   D_7      
     e( 43 - 44) =     15.13331  eV     2   --> G_7   D_7      
     e( 45 - 46) =     15.17430  eV     2   --> G_6   D_6      
     e( 47 - 48) =     15.21359  eV     2   --> G_7   D_7      
     e( 49 - 50) =     17.48016  eV     2   --> G_6   D_6      
     e( 51 - 52) =     17.61868  eV     2   --> G_7   D_7      
     e( 53 - 54) =     18.10920  eV     2   --> G_7   D_7      
     e( 55 - 56) =     18.53483  eV     2   --> G_6   D_6      
     e( 57 - 58) =     19.00008  eV     2   --> G_6   D_6      
     e( 59 - 60) =     19.02186  eV     2   --> G_7   D_7      
     e( 61 - 62) =     19.12017  eV     2   --> G_6   D_6      
     e( 63 - 64) =     19.49476  eV     2   --> G_7   D_7      
     e( 65 - 66) =     19.77444  eV     2   --> G_7   D_7      
     e( 67 - 68) =     19.86731  eV     2   --> G_6   D_6      
     e( 69 - 70) =     20.46568  eV     2   --> G_6   D_6      
     e( 71 - 72) =     20.49111  eV     2   --> G_7   D_7      
     e( 73 - 74) =     21.66435  eV     2   --> G_6   D_6      
     e( 75 - 76) =     25.82278  eV     2   --> G_6   D_6      
     e( 77 - 78) =     25.86009  eV     2   --> G_7   D_7      
     e( 79 - 80) =     27.59225  eV     2   --> G_6   D_6      
     e( 81 - 82) =     27.61835  eV     2   --> G_7   D_7      

 **************************************************************************

 **************************************************************************

                    xk=(   0.00000,   0.06667,   0.00000  )

     Band symmetry, C_4v (4mm)  double point group:

     e(  1 -  2) =    -77.90464  eV     2   --> G_6   D_6      
     e(  3 -  4) =    -77.88955  eV     2   --> G_6   D_6      
     e(  5 -  6) =    -77.88940  eV     2   --> G_7   D_7      
     e(  7 -  8) =    -43.21038  eV     2   --> G_7   D_7      
     e(  9 - 10) =    -43.20984  eV     2   --> G_6   D_6      
     e( 11 - 12) =    -43.15586  eV     2   --> G_6   D_6      
     e( 13 - 14) =    -28.35339  eV     2   --> G_6   D_6      
     e( 15 - 16) =    -28.31735  eV     2   --> G_6   D_6      
     e( 17 - 18) =    -28.31677  eV     2   --> G_7   D_7      
     e( 19 - 20) =    -28.25102  eV     2   --> G_7   D_7      
     e( 21 - 22) =    -28.13886  eV     2   --> G_6   D_6      
     e( 23 - 24) =    -28.13736  eV     2   --> G_7   D_7      
     e( 25 - 26) =      1.56098  eV     2   --> G_7   D_7      
     e( 27 - 28) =      1.56203  eV     2   --> G_6   D_6      
     e( 29 - 30) =      4.06727  eV     2   --> G_7   D_7      
     e( 31 - 32) =      4.06964  eV     2   --> G_6   D_6      
     e( 33 - 34) =      4.10213  eV     2   --> G_7   D_7      
     e( 35 - 36) =      8.35236  eV     2   --> G_6   D_6      
     e( 37 - 38) =     13.68694  eV     2   --> G_6   D_6      
     e( 39 - 40) =     15.07750  eV     2   --> G_6   D_6      
     e( 41 - 42) =     15.09754  eV     2   --> G_7   D_7      
     e( 43 - 44) =     15.13523  eV     2   --> G_7   D_7      
     e( 45 - 46) =     15.17054  eV     2   --> G_6   D_6      
     e( 47 - 48) =     15.22060  eV     2   --> G_7   D_7      
     e( 49 - 50) =     17.43721  eV     2   --> G_6   D_6      
     e( 51 - 52) =     17.60816  eV     2   --> G_7   D_7      
     e( 53 - 54) =     18.09407  eV     2   --> G_7   D_7      
     e( 55 - 56) =     18.54737  eV     2   --> G_6   D_6      
     e( 57 - 58) =     18.96517  eV     2   --> G_6   D_6      
     e( 59 - 60) =     19.01288  eV     2   --> G_7   D_7      
     e( 61 - 62) =     19.08063  eV     2   --> G_6   D_6      
     e( 63 - 64) =     19.49783  eV     2   --> G_7   D_7      
     e( 65 - 66) =     19.76830  eV     2   --> G_7   D_7      
     e( 67 - 68) =     19.88949  eV     2   --> G_6   D_6      
     e( 69 - 70) =     20.48138  eV     2   --> G_6   D_6      
     e( 71 - 72) =     20.51769  eV     2   --> G_7   D_7      
     e( 73 - 74) =     21.70576  eV     2   --> G_6   D_6      
     e( 75 - 76) =     25.81348  eV     2   --> G_6   D_6      
     e( 77 - 78) =     25.85576  eV     2   --> G_7   D_7      
     e( 79 - 80) =     27.61355  eV     2   --> G_7   D_7      
     e( 81 - 82) =     27.62134  eV     2   --> G_6   D_6      

 **************************************************************************

 **************************************************************************

                    xk=(   0.00000,   0.07500,   0.00000  )

     Band symmetry, C_4v (4mm)  double point group:

     e(  1 -  2) =    -77.90460  eV     2   --> G_6   D_6      
     e(  3 -  4) =    -77.88959  eV     2   --> G_6   D_6      
     e(  5 -  6) =    -77.88940  eV     2   --> G_7   D_7      
     e(  7 -  8) =    -43.21038  eV     2   --> G_7   D_7      
     e(  9 - 10) =    -43.20970  eV     2   --> G_6   D_6      
     e( 11 - 12) =    -43.15600  eV     2   --> G_6   D_6      
     e( 13 - 14) =    -28.35296  eV     2   --> G_6   D_6      
     e( 15 - 16) =    -28.31721  eV     2   --> G_6   D_6      
     e( 17 - 18) =    -28.31649  eV     2   --> G_7   D_7      
     e( 19 - 20) =    -28.25111  eV     2   --> G_7   D_7      
     e( 21 - 22) =    -28.13948  eV     2   --> G_6   D_6      
     e( 23 - 24) =    -28.13759  eV     2   --> G_7   D_7      
     e( 25 - 26) =      1.56119  eV     2   --> G_7   D_7      
     e( 27 - 28) =      1.56251  eV     2   --> G_6   D_6      
     e( 29 - 30) =      4.06764  eV     2   --> G_7   D_7      
     e( 31 - 32) =      4.07062  eV     2   --> G_6   D_6      
     e( 33 - 34) =      4.10244  eV     2   --> G_7   D_7      
     e( 35 - 36) =      8.36398  eV     2   --> G_6   D_6      
     e( 37 - 38) =     13.69382  eV     2   --> G_6   D_6      
     e( 39 - 40) =     15.07313  eV     2   --> G_6   D_6      
     e( 41 - 42) =     15.10083  eV     2   --> G_7   D_7      
     e( 43 - 44) =     15.13737  eV     2   --> G_7   D_7      
     e( 45 - 46) =     15.16722  eV     2   --> G_6   D_6      
     e( 47 - 48) =     15.22862  eV     2   --> G_7   D_7      
     e( 49 - 50) =     17.39216  eV     2   --> G_6   D_6      
     e( 51 - 52) =     17.59620  eV     2   --> G_7   D_7      
     e( 53 - 54) =     18.07797  eV     2   --> G_7   D_7      
     e( 55 - 56) =     18.55133  eV     2   --> G_6   D_6      
     e( 57 - 58) =     18.92161  eV     2   --> G_6   D_6      
     e( 59 - 60) =     19.00353  eV     2   --> G_7   D_7      
     e( 61 - 62) =     19.05523  eV     2   --> G_6   D_6      
     e( 63 - 64) =     19.49915  eV     2   --> G_7   D_7      
     e( 65 - 66) =     19.76120  eV     2   --> G_7   D_7      
     e( 67 - 68) =     19.90962  eV     2   --> G_6   D_6      
     e( 69 - 70) =     20.49887  eV     2   --> G_6   D_6      
     e( 71 - 72) =     20.54847  eV     2   --> G_7   D_7      
     e( 73 - 74) =     21.74860  eV     2   --> G_6   D_6      
     e( 75 - 76) =     25.80605  eV     2   --> G_6   D_6      
     e( 77 - 78) =     25.85089  eV     2   --> G_7   D_7      
     e( 79 - 80) =     27.60768  eV     2   --> G_7   D_7      
     e( 81 - 82) =     27.65177  eV     2   --> G_6   D_6      

 **************************************************************************

 **************************************************************************

                    xk=(   0.00000,   0.08333,   0.00000  )

     Band symmetry, C_4v (4mm)  double point group:

     e(  1 -  2) =    -77.90456  eV     2   --> G_6   D_6      
     e(  3 -  4) =    -77.88964  eV     2   --> G_6   D_6      
     e(  5 -  6) =    -77.88940  eV     2   --> G_7   D_7      
     e(  7 -  8) =    -43.21038  eV     2   --> G_7   D_7      
     e(  9 - 10) =    -43.20955  eV     2   --> G_6   D_6      
     e( 11 - 12) =    -43.15616  eV     2   --> G_6   D_6      
     e( 13 - 14) =    -28.35249  eV     2   --> G_6   D_6      
     e( 15 - 16) =    -28.31706  eV     2   --> G_6   D_6      
     e( 17 - 18) =    -28.31618  eV     2   --> G_7   D_7      
     e( 19 - 20) =    -28.25120  eV     2   --> G_7   D_7      
     e( 21 - 22) =    -28.14018  eV     2   --> G_6   D_6      
     e( 23 - 24) =    -28.13784  eV     2   --> G_7   D_7      
     e( 25 - 26) =      1.56143  eV     2   --> G_7   D_7      
     e( 27 - 28) =      1.56305  eV     2   --> G_6   D_6      
     e( 29 - 30) =      4.06804  eV     2   --> G_7   D_7      
     e( 31 - 32) =      4.07170  eV     2   --> G_6   D_6      
     e( 33 - 34) =      4.10279  eV     2   --> G_7   D_7      
     e( 35 - 36) =      8.37695  eV     2   --> G_6   D_6      
     e( 37 - 38) =     13.70137  eV     2   --> G_6   D_6      
     e( 39 - 40) =     15.06686  eV     2   --> G_6   D_6      
     e( 41 - 42) =     15.10439  eV     2   --> G_7   D_7      
     e( 43 - 44) =     15.13974  eV     2   --> G_7   D_7      
     e( 45 - 46) =     15.16467  eV     2   --> G_6   D_6      
     e( 47 - 48) =     15.23766  eV     2   --> G_7   D_7      
     e( 49 - 50) =     17.34558  eV     2   --> G_6   D_6      
     e( 51 - 52) =     17.58281  eV     2   --> G_7   D_7      
     e( 53 - 54) =     18.06120  eV     2   --> G_7   D_7      
     e( 55 - 56) =     18.54194  eV     2   --> G_6   D_6      
     e( 57 - 58) =     18.88060  eV     2   --> G_6   D_6      
     e( 59 - 60) =     18.99389  eV     2   --> G_7   D_7      
     e( 61 - 62) =     19.03747  eV     2   --> G_6   D_6      
     e( 63 - 64) =     19.49843  eV     2   --> G_7   D_7      
     e( 65 - 66) =     19.75308  eV     2   --> G_7   D_7      
     e( 67 - 68) =     19.92802  eV     2   --> G_6   D_6      
     e( 69 - 70) =     20.51824  eV     2   --> G_6   D_6      
     e( 71 - 72) =     20.58349  eV     2   --> G_7   D_7      
     e( 73 - 74) =     21.79174  eV     2   --> G_6   D_6      
     e( 75 - 76) =     25.80129  eV     2   --> G_6   D_6      
     e( 77 - 78) =     25.84547  eV     2   --> G_7   D_7      
     e( 79 - 80) =     27.60058  eV     2   --> G_7   D_7      
     e( 81 - 82) =     27.68317  eV     2   --> G_6   D_6      

 **************************************************************************

 **************************************************************************

                    xk=(   0.00000,   0.09167,   0.00000  )

     Band symmetry, C_4v (4mm)  double point group:

     e(  1 -  2) =    -77.90451  eV     2   --> G_6   D_6      
     e(  3 -  4) =    -77.88968  eV     2   --> G_6   D_6      
     e(  5 -  6) =    -77.88940  eV     2   --> G_7   D_7      
     e(  7 -  8) =    -43.21038  eV     2   --> G_7   D_7      
     e(  9 - 10) =    -43.20937  eV     2   --> G_6   D_6      
     e( 11 - 12) =    -43.15634  eV     2   --> G_6   D_6      
     e( 13 - 14) =    -28.35198  eV     2   --> G_6   D_6      
     e( 15 - 16) =    -28.31687  eV     2   --> G_6   D_6      
     e( 17 - 18) =    -28.31583  eV     2   --> G_7   D_7      
     e( 19 - 20) =    -28.25130  eV     2   --> G_7   D_7      
     e( 21 - 22) =    -28.14095  eV     2   --> G_6   D_6      
     e( 23 - 24) =    -28.13812  eV     2   --> G_7   D_7      
     e( 25 - 26) =      1.56169  eV     2   --> G_7   D_7      
     e( 27 - 28) =      1.56364  eV     2   --> G_6   D_6      
     e( 29 - 30) =      4.06847  eV     2   --> G_7   D_7      
     e( 31 - 32) =      4.07289  eV     2   --> G_6   D_6      
     e( 33 - 34) =      4.10317  eV     2   --> G_7   D_7      
     e( 35 - 36) =      8.39126  eV     2   --> G_6   D_6      
     e( 37 - 38) =     13.70956  eV     2   --> G_6   D_6      
     e( 39 - 40) =     15.05839  eV     2   --> G_6   D_6      
     e( 41 - 42) =     15.10820  eV     2   --> G_7   D_7      
     e( 43 - 44) =     15.14232  eV     2   --> G_7   D_7      
     e( 45 - 46) =     15.16315  eV     2   --> G_6   D_6      
     e( 47 - 48) =     15.24773  eV     2   --> G_7   D_7      
     e( 49 - 50) =     17.29791  eV     2   --> G_6   D_6      
     e( 51 - 52) =     17.56802  eV     2   --> G_7   D_7      
     e( 53 - 54) =     18.04401  eV     2   --> G_7   D_7      
     e( 55 - 56) =     18.51525  eV     2   --> G_6   D_6      
     e( 57 - 58) =     18.85048  eV     2   --> G_6   D_6      
     e( 59 - 60) =     18.98400  eV     2   --> G_7   D_7      
     e( 61 - 62) =     19.02295  eV     2   --> G_6   D_6      
     e( 63 - 64) =     19.49548  eV     2   --> G_7   D_7      
     e( 65 - 66) =     19.74387  eV     2   --> G_7   D_7      
     e( 67 - 68) =     19.94500  eV     2   --> G_6   D_6      
     e( 69 - 70) =     20.53969  eV     2   --> G_6   D_6      
     e( 71 - 72) =     20.62272  eV     2   --> G_7   D_7      
     e( 73 - 74) =     21.83413  eV     2   --> G_6   D_6      
     e( 75 - 76) =     25.79998  eV     2   --> G_6   D_6      
     e( 77 - 78) =     25.83952  eV     2   --> G_7   D_7      
     e( 79 - 80) =     27.59212  eV     2   --> G_7   D_7      
     e( 81 - 82) =     27.71526  eV     2   --> G_6   D_6      

 **************************************************************************

 **************************************************************************

                    xk=(   0.00000,   0.10000,   0.00000  )

     Band symmetry, C_4v (4mm)  double point group:

     e(  1 -  2) =    -77.90446  eV     2   --> G_6   D_6      
     e(  3 -  4) =    -77.88974  eV     2   --> G_6   D_6      
     e(  5 -  6) =    -77.88940  eV     2   --> G_7   D_7      
     e(  7 -  8) =    -43.21038  eV     2   --> G_7   D_7      
     e(  9 - 10) =    -43.20919  eV     2   --> G_6   D_6      
     e( 11 - 12) =    -43.15653  eV     2   --> G_6   D_6      
     e( 13 - 14) =    -28.35142  eV     2   --> G_6   D_6      
     e( 15 - 16) =    -28.31667  eV     2   --> G_6   D_6      
     e( 17 - 18) =    -28.31545  eV     2   --> G_7   D_7      
     e( 19 - 20) =    -28.25141  eV     2   --> G_7   D_7      
     e( 21 - 22) =    -28.14179  eV     2   --> G_6   D_6      
     e( 23 - 24) =    -28.13843  eV     2   --> G_7   D_7      
     e( 25 - 26) =      1.56197  eV     2   --> G_7   D_7      
     e( 27 - 28) =      1.56428  eV     2   --> G_6   D_6      
     e( 29 - 30) =      4.06895  eV     2   --> G_7   D_7      
     e( 31 - 32) =      4.07418  eV     2   --> G_6   D_6      
     e( 33 - 34) =      4.10359  eV     2   --> G_7   D_7      
     e( 35 - 36) =      8.40690  eV     2   --> G_6   D_6      
     e( 37 - 38) =     13.71833  eV     2   --> G_6   D_6      
     e( 39 - 40) =     15.04753  eV     2   --> G_6   D_6      
     e( 41 - 42) =     15.11222  eV     2   --> G_7   D_7      
     e( 43 - 44) =     15.14511  eV     2   --> G_7   D_7      
     e( 45 - 46) =     15.16278  eV     2   --> G_6   D_6      
     e( 47 - 48) =     15.25882  eV     2   --> G_7   D_7      
     e( 49 - 50) =     17.24956  eV     2   --> G_6   D_6      
     e( 51 - 52) =     17.55187  eV     2   --> G_7   D_7      
     e( 53 - 54) =     18.02664  eV     2   --> G_7   D_7      
     e( 55 - 56) =     18.47122  eV     2   --> G_6   D_6      
     e( 57 - 58) =     18.83307  eV     2   --> G_6   D_6      
     e( 59 - 60) =     18.97387  eV     2   --> G_7   D_7      
     e( 61 - 62) =     19.00987  eV     2   --> G_6   D_6      
     e( 63 - 64) =     19.49023  eV     2   --> G_7   D_7      
     e( 65 - 66) =     19.73355  eV     2   --> G_7   D_7      
     e( 67 - 68) =     19.96081  eV     2   --> G_6   D_6      
     e( 69 - 70) =     20.56342  eV     2   --> G_6   D_6      
     e( 71 - 72) =     20.66607  eV     2   --> G_7   D_7      
     e( 73 - 74) =     21.87475  eV     2   --> G_6   D_6      
     e( 75 - 76) =     25.80282  eV     2   --> G_6   D_6      
     e( 77 - 78) =     25.83306  eV     2   --> G_7   D_7      
     e( 79 - 80) =     27.58216  eV     2   --> G_7   D_7      
     e( 81 - 82) =     27.74778  eV     2   --> G_6   D_6      

 **************************************************************************

 **************************************************************************

                    xk=(   0.00000,   0.10833,   0.00000  )

     Band symmetry, C_4v (4mm)  double point group:

     e(  1 -  2) =    -77.90440  eV     2   --> G_6   D_6      
     e(  3 -  4) =    -77.88979  eV     2   --> G_6   D_6      
     e(  5 -  6) =    -77.88940  eV     2   --> G_7   D_7      
     e(  7 -  8) =    -43.21038  eV     2   --> G_7   D_7      
     e(  9 - 10) =    -43.20898  eV     2   --> G_6   D_6      
     e( 11 - 12) =    -43.15674  eV     2   --> G_6   D_6      
     e( 13 - 14) =    -28.35083  eV     2   --> G_6   D_6      
     e( 15 - 16) =    -28.31644  eV     2   --> G_6   D_6      
     e( 17 - 18) =    -28.31505  eV     2   --> G_7   D_7      
     e( 19 - 20) =    -28.25153  eV     2   --> G_7   D_7      
     e( 21 - 22) =    -28.14269  eV     2   --> G_6   D_6      
     e( 23 - 24) =    -28.13875  eV     2   --> G_7   D_7      
     e( 25 - 26) =      1.56227  eV     2   --> G_7   D_7      
     e( 27 - 28) =      1.56497  eV     2   --> G_6   D_6      
     e( 29 - 30) =      4.06946  eV     2   --> G_7   D_7      
     e( 31 - 32) =      4.07556  eV     2   --> G_6   D_6      
     e( 33 - 34) =      4.10403  eV     2   --> G_7   D_7      
     e( 35 - 36) =      8.42388  eV     2   --> G_6   D_6      
     e( 37 - 38) =     13.72760  eV     2   --> G_6   D_6      
     e( 39 - 40) =     15.03422  eV     2   --> G_6   D_6      
     e( 41 - 42) =     15.11644  eV     2   --> G_7   D_7      
     e( 43 - 44) =     15.14811  eV     2   --> G_7   D_7      
     e( 45 - 46) =     15.16355  eV     2   --> G_6   D_6      
     e( 47 - 48) =     15.27095  eV     2   --> G_7   D_7      
     e( 49 - 50) =     17.20084  eV     2   --> G_6   D_6      
     e( 51 - 52) =     17.53444  eV     2   --> G_7   D_7      
     e( 53 - 54) =     18.00927  eV     2   --> G_7   D_7      
     e( 55 - 56) =     18.41396  eV     2   --> G_6   D_6      
     e( 57 - 58) =     18.82498  eV     2   --> G_6   D_6      
     e( 59 - 60) =     18.96350  eV     2   --> G_7   D_7      
     e( 61 - 62) =     18.99758  eV     2   --> G_6   D_6      
     e( 63 - 64) =     19.48269  eV     2   --> G_7   D_7      
     e( 65 - 66) =     19.72210  eV     2   --> G_7   D_7      
     e( 67 - 68) =     19.97562  eV     2   --> G_6   D_6      
     e( 69 - 70) =     20.58968  eV     2   --> G_6   D_6      
     e( 71 - 72) =     20.71339  eV     2   --> G_7   D_7      
     e( 73 - 74) =     21.91272  eV     2   --> G_6   D_6      
     e( 75 - 76) =     25.81043  eV     2   --> G_6   D_6      
     e( 77 - 78) =     25.82610  eV     2   --> G_7   D_7      
     e( 79 - 80) =     27.57056  eV     2   --> G_7   D_7      
     e( 81 - 82) =     27.78043  eV     2   --> G_6   D_6      

 **************************************************************************

 **************************************************************************

                    xk=(   0.00000,   0.11667,   0.00000  )

     Band symmetry, C_4v (4mm)  double point group:

     e(  1 -  2) =    -77.90434  eV     2   --> G_6   D_6      
     e(  3 -  4) =    -77.88986  eV     2   --> G_6   D_6      
     e(  5 -  6) =    -77.88940  eV     2   --> G_7   D_7      
     e(  7 -  8) =    -43.21039  eV     2   --> G_7   D_7      
     e(  9 - 10) =    -43.20877  eV     2   --> G_6   D_6      
     e( 11 - 12) =    -43.15696  eV     2   --> G_6   D_6      
     e( 13 - 14) =    -28.35020  eV     2   --> G_6   D_6      
     e( 15 - 16) =    -28.31618  eV     2   --> G_6   D_6      
     e( 17 - 18) =    -28.31461  eV     2   --> G_7   D_7      
     e( 19 - 20) =    -28.25166  eV     2   --> G_7   D_7      
     e( 21 - 22) =    -28.14367  eV     2   --> G_6   D_6      
     e( 23 - 24) =    -28.13910  eV     2   --> G_7   D_7      
     e( 25 - 26) =      1.56259  eV     2   --> G_7   D_7      
     e( 27 - 28) =      1.56570  eV     2   --> G_6   D_6      
     e( 29 - 30) =      4.07000  eV     2   --> G_7   D_7      
     e( 31 - 32) =      4.07704  eV     2   --> G_6   D_6      
     e( 33 - 34) =      4.10451  eV     2   --> G_7   D_7      
     e( 35 - 36) =      8.44217  eV     2   --> G_6   D_6      
     e( 37 - 38) =     13.73730  eV     2   --> G_6   D_6      
     e( 39 - 40) =     15.01854  eV     2   --> G_6   D_6      
     e( 41 - 42) =     15.12084  eV     2   --> G_7   D_7      
     e( 43 - 44) =     15.15130  eV     2   --> G_7   D_7      
     e( 45 - 46) =     15.16534  eV     2   --> G_6   D_6      
     e( 47 - 48) =     15.28411  eV     2   --> G_7   D_7      
     e( 49 - 50) =     17.15207  eV     2   --> G_6   D_6      
     e( 51 - 52) =     17.51581  eV     2   --> G_7   D_7      
     e( 53 - 54) =     17.99208  eV     2   --> G_7   D_7      
     e( 55 - 56) =     18.34842  eV     2   --> G_6   D_6      
     e( 57 - 58) =     18.82147  eV     2   --> G_6   D_6      
     e( 59 - 60) =     18.95286  eV     2   --> G_7   D_7      
     e( 61 - 62) =     18.98593  eV     2   --> G_6   D_6      
     e( 63 - 64) =     19.47290  eV     2   --> G_7   D_7      
     e( 65 - 66) =     19.70951  eV     2   --> G_7   D_7      
     e( 67 - 68) =     19.98955  eV     2   --> G_6   D_6      
     e( 69 - 70) =     20.61869  eV     2   --> G_6   D_6      
     e( 71 - 72) =     20.76450  eV     2   --> G_7   D_7      
     e( 73 - 74) =     21.94724  eV     2   --> G_6   D_6      
     e( 75 - 76) =     25.81866  eV     2   --> G_7   D_7      
     e( 77 - 78) =     25.82332  eV     2   --> G_6   D_6      
     e( 79 - 80) =     27.55720  eV     2   --> G_7   D_7      
     e( 81 - 82) =     27.81282  eV     2   --> G_6   D_6      

 **************************************************************************

 **************************************************************************

                    xk=(   0.00000,   0.12500,   0.00000  )

     Band symmetry, C_4v (4mm)  double point group:

     e(  1 -  2) =    -77.90427  eV     2   --> G_6   D_6      
     e(  3 -  4) =    -77.88992  eV     2   --> G_6   D_6      
     e(  5 -  6) =    -77.88940  eV     2   --> G_7   D_7      
     e(  7 -  8) =    -43.21039  eV     2   --> G_7   D_7      
     e(  9 - 10) =    -43.20853  eV     2   --> G_6   D_6      
     e( 11 - 12) =    -43.15720  eV     2   --> G_6   D_6      
     e( 13 - 14) =    -28.34954  eV     2   --> G_6   D_6      
     e( 15 - 16) =    -28.31589  eV     2   --> G_6   D_6      
     e( 17 - 18) =    -28.31414  eV     2   --> G_7   D_7      
     e( 19 - 20) =    -28.25181  eV     2   --> G_7   D_7      
     e( 21 - 22) =    -28.14472  eV     2   --> G_6   D_6      
     e( 23 - 24) =    -28.13947  eV     2   --> G_7   D_7      
     e( 25 - 26) =      1.56293  eV     2   --> G_7   D_7      
     e( 27 - 28) =      1.56648  eV     2   --> G_6   D_6      
     e( 29 - 30) =      4.07058  eV     2   --> G_7   D_7      
     e( 31 - 32) =      4.07861  eV     2   --> G_6   D_6      
     e( 33 - 34) =      4.10502  eV     2   --> G_7   D_7      
     e( 35 - 36) =      8.46177  eV     2   --> G_6   D_6      
     e( 37 - 38) =     13.74733  eV     2   --> G_6   D_6      
     e( 39 - 40) =     15.00057  eV     2   --> G_6   D_6      
     e( 41 - 42) =     15.12539  eV     2   --> G_7   D_7      
     e( 43 - 44) =     15.15468  eV     2   --> G_7   D_7      
     e( 45 - 46) =     15.16803  eV     2   --> G_6   D_6      
     e( 47 - 48) =     15.29828  eV     2   --> G_7   D_7      
     e( 49 - 50) =     17.10349  eV     2   --> G_6   D_6      
     e( 51 - 52) =     17.49611  eV     2   --> G_7   D_7      
     e( 53 - 54) =     17.97519  eV     2   --> G_7   D_7      
     e( 55 - 56) =     18.27836  eV     2   --> G_6   D_6      
     e( 57 - 58) =     18.81890  eV     2   --> G_6   D_6      
     e( 59 - 60) =     18.94190  eV     2   --> G_7   D_7      
     e( 61 - 62) =     18.97496  eV     2   --> G_6   D_6      
     e( 63 - 64) =     19.46096  eV     2   --> G_7   D_7      
     e( 65 - 66) =     19.69582  eV     2   --> G_7   D_7      
     e( 67 - 68) =     20.00267  eV     2   --> G_6   D_6      
     e( 69 - 70) =     20.65069  eV     2   --> G_6   D_6      
     e( 71 - 72) =     20.81918  eV     2   --> G_7   D_7      
     e( 73 - 74) =     21.97765  eV     2   --> G_6   D_6      
     e( 75 - 76) =     25.81074  eV     2   --> G_7   D_7      
     e( 77 - 78) =     25.84191  eV     2   --> G_6   D_6      
     e( 79 - 80) =     27.54197  eV     2   --> G_7   D_7      
     e( 81 - 82) =     27.84444  eV     2   --> G_6   D_6      

 **************************************************************************

 **************************************************************************

                    xk=(   0.00000,   0.13333,   0.00000  )

     Band symmetry, C_4v (4mm)  double point group:

     e(  1 -  2) =    -77.90420  eV     2   --> G_6   D_6      
     e(  3 -  4) =    -77.88999  eV     2   --> G_6   D_6      
     e(  5 -  6) =    -77.88940  eV     2   --> G_7   D_7      
     e(  7 -  8) =    -43.21039  eV     2   --> G_7   D_7      
     e(  9 - 10) =    -43.20829  eV     2   --> G_6   D_6      
     e( 11 - 12) =    -43.15745  eV     2   --> G_6   D_6      
     e( 13 - 14) =    -28.34885  eV     2   --> G_6   D_6      
     e( 15 - 16) =    -28.31557  eV     2   --> G_6   D_6      
     e( 17 - 18) =    -28.31364  eV     2   --> G_7   D_7      
     e( 19 - 20) =    -28.25196  eV     2   --> G_7   D_7      
     e( 21 - 22) =    -28.14583  eV     2   --> G_6   D_6      
     e( 23 - 24) =    -28.13986  eV     2   --> G_7   D_7      
     e( 25 - 26) =      1.56328  eV     2   --> G_7   D_7      
     e( 27 - 28) =      1.56730  eV     2   --> G_6   D_6      
     e( 29 - 30) =      4.07119  eV     2   --> G_7   D_7      
     e( 31 - 32) =      4.08026  eV     2   --> G_6   D_6      
     e( 33 - 34) =      4.10555  eV     2   --> G_7   D_7      
     e( 35 - 36) =      8.48266  eV     2   --> G_6   D_6      
     e( 37 - 38) =     13.75758  eV     2   --> G_6   D_6      
     e( 39 - 40) =     14.98044  eV     2   --> G_6   D_6      
     e( 41 - 42) =     15.13008  eV     2   --> G_7   D_7      
     e( 43 - 44) =     15.15824  eV     2   --> G_7   D_7      
     e( 45 - 46) =     15.17145  eV     2   --> G_6   D_6      
     e( 47 - 48) =     15.31346  eV     2   --> G_7   D_7      
     e( 49 - 50) =     17.05534  eV     2   --> G_6   D_6      
     e( 51 - 52) =     17.47545  eV     2   --> G_7   D_7      
     e( 53 - 54) =     17.95869  eV     2   --> G_7   D_7      
     e( 55 - 56) =     18.20618  eV     2   --> G_6   D_6      
     e( 57 - 58) =     18.81497  eV     2   --> G_6   D_6      
     e( 59 - 60) =     18.93056  eV     2   --> G_7   D_7      
     e( 61 - 62) =     18.96473  eV     2   --> G_6   D_6      
     e( 63 - 64) =     19.44698  eV     2   --> G_7   D_7      
     e( 65 - 66) =     19.68109  eV     2   --> G_7   D_7      
     e( 67 - 68) =     20.01500  eV     2   --> G_6   D_6      
     e( 69 - 70) =     20.68585  eV     2   --> G_6   D_6      
     e( 71 - 72) =     20.87719  eV     2   --> G_7   D_7      
     e( 73 - 74) =     22.00342  eV     2   --> G_6   D_6      
     e( 75 - 76) =     25.80238  eV     2   --> G_7   D_7      
     e( 77 - 78) =     25.86647  eV     2   --> G_6   D_6      
     e( 79 - 80) =     27.52476  eV     2   --> G_7   D_7      
     e( 81 - 82) =     27.87470  eV     2   --> G_6   D_6      

 **************************************************************************

 **************************************************************************

                    xk=(   0.00000,   0.14167,   0.00000  )

     Band symmetry, C_4v (4mm)  double point group:

     e(  1 -  2) =    -77.90413  eV     2   --> G_6   D_6      
     e(  3 -  4) =    -77.89006  eV     2   --> G_6   D_6      
     e(  5 -  6) =    -77.88940  eV     2   --> G_7   D_7      
     e(  7 -  8) =    -43.21039  eV     2   --> G_7   D_7      
     e(  9 - 10) =    -43.20802  eV     2   --> G_6   D_6      
     e( 11 - 12) =    -43.15772  eV     2   --> G_6   D_6      
     e( 13 - 14) =    -28.34813  eV     2   --> G_6   D_6      
     e( 15 - 16) =    -28.31522  eV     2   --> G_6   D_6      
     e( 17 - 18) =    -28.31311  eV     2   --> G_7   D_7      
     e( 19 - 20) =    -28.25213  eV     2   --> G_7   D_7      
     e( 21 - 22) =    -28.14701  eV     2   --> G_6   D_6      
     e( 23 - 24) =    -28.14027  eV     2   --> G_7   D_7      
     e( 25 - 26) =      1.56366  eV     2   --> G_7   D_7      
     e( 27 - 28) =      1.56816  eV     2   --> G_6   D_6      
     e( 29 - 30) =      4.07182  eV     2   --> G_7   D_7      
     e( 31 - 32) =      4.08198  eV     2   --> G_6   D_6      
     e( 33 - 34) =      4.10611  eV     2   --> G_7   D_7      
     e( 35 - 36) =      8.50484  eV     2   --> G_6   D_6      
     e( 37 - 38) =     13.76791  eV     2   --> G_6   D_6      
     e( 39 - 40) =     14.95826  eV     2   --> G_6   D_6      
     e( 41 - 42) =     15.13488  eV     2   --> G_7   D_7      
     e( 43 - 44) =     15.16197  eV     2   --> G_7   D_7      
     e( 45 - 46) =     15.17550  eV     2   --> G_6   D_6      
     e( 47 - 48) =     15.32964  eV     2   --> G_7   D_7      
     e( 49 - 50) =     17.00784  eV     2   --> G_6   D_6      
     e( 51 - 52) =     17.45399  eV     2   --> G_7   D_7      
     e( 53 - 54) =     17.94264  eV     2   --> G_7   D_7      
     e( 55 - 56) =     18.13342  eV     2   --> G_6   D_6      
     e( 57 - 58) =     18.80843  eV     2   --> G_6   D_6      
     e( 59 - 60) =     18.91880  eV     2   --> G_7   D_7      
     e( 61 - 62) =     18.95516  eV     2   --> G_6   D_6      
     e( 63 - 64) =     19.43107  eV     2   --> G_7   D_7      
     e( 65 - 66) =     19.66538  eV     2   --> G_7   D_7      
     e( 67 - 68) =     20.02656  eV     2   --> G_6   D_6      
     e( 69 - 70) =     20.72430  eV     2   --> G_6   D_6      
     e( 71 - 72) =     20.93831  eV     2   --> G_7   D_7      
     e( 73 - 74) =     22.02418  eV     2   --> G_6   D_6      
     e( 75 - 76) =     25.79358  eV     2   --> G_7   D_7      
     e( 77 - 78) =     25.89715  eV     2   --> G_6   D_6      
     e( 79 - 80) =     27.50550  eV     2   --> G_7   D_7      
     e( 81 - 82) =     27.90288  eV     2   --> G_6   D_6      

 **************************************************************************

 **************************************************************************

                    xk=(   0.00000,   0.15000,   0.00000  )

     Band symmetry, C_4v (4mm)  double point group:

     e(  1 -  2) =    -77.90405  eV     2   --> G_6   D_6      
     e(  3 -  4) =    -77.89014  eV     2   --> G_6   D_6      
     e(  5 -  6) =    -77.88940  eV     2   --> G_7   D_7      
     e(  7 -  8) =    -43.21040  eV     2   --> G_7   D_7      
     e(  9 - 10) =    -43.20775  eV     2   --> G_6   D_6      
     e( 11 - 12) =    -43.15800  eV     2   --> G_6   D_6      
     e( 13 - 14) =    -28.34739  eV     2   --> G_6   D_6      
     e( 15 - 16) =    -28.31482  eV     2   --> G_6   D_6      
     e( 17 - 18) =    -28.31256  eV     2   --> G_7   D_7      
     e( 19 - 20) =    -28.25230  eV     2   --> G_7   D_7      
     e( 21 - 22) =    -28.14826  eV     2   --> G_6   D_6      
     e( 23 - 24) =    -28.14070  eV     2   --> G_7   D_7      
     e( 25 - 26) =      1.56405  eV     2   --> G_7   D_7      
     e( 27 - 28) =      1.56905  eV     2   --> G_6   D_6      
     e( 29 - 30) =      4.07249  eV     2   --> G_7   D_7      
     e( 31 - 32) =      4.08379  eV     2   --> G_6   D_6      
     e( 33 - 34) =      4.10669  eV     2   --> G_7   D_7      
     e( 35 - 36) =      8.52830  eV     2   --> G_6   D_6      
     e( 37 - 38) =     13.77816  eV     2   --> G_6   D_6      
     e( 39 - 40) =     14.93419  eV     2   --> G_6   D_6      
     e( 41 - 42) =     15.13978  eV     2   --> G_7   D_7      
     e( 43 - 44) =     15.16587  eV     2   --> G_7   D_7      
     e( 45 - 46) =     15.18004  eV     2   --> G_6   D_6      
     e( 47 - 48) =     15.34679  eV     2   --> G_7   D_7      
     e( 49 - 50) =     16.96120  eV     2   --> G_6   D_6      
     e( 51 - 52) =     17.43188  eV     2   --> G_7   D_7      
     e( 53 - 54) =     17.92707  eV     2   --> G_7   D_7      
     e( 55 - 56) =     18.06104  eV     2   --> G_6   D_6      
     e( 57 - 58) =     18.79881  eV     2   --> G_6   D_6      
     e( 59 - 60) =     18.90655  eV     2   --> G_7   D_7      
     e( 61 - 62) =     18.94602  eV     2   --> G_6   D_6      
     e( 63 - 64) =     19.41336  eV     2   --> G_7   D_7      
     e( 65 - 66) =     19.64881  eV     2   --> G_7   D_7      
     e( 67 - 68) =     20.03734  eV     2   --> G_6   D_6      
     e( 69 - 70) =     20.76611  eV     2   --> G_6   D_6      
     e( 71 - 72) =     21.00229  eV     2   --> G_7   D_7      
     e( 73 - 74) =     22.03968  eV     2   --> G_6   D_6      
     e( 75 - 76) =     25.78438  eV     2   --> G_7   D_7      
     e( 77 - 78) =     25.93394  eV     2   --> G_6   D_6      
     e( 79 - 80) =     27.48412  eV     2   --> G_7   D_7      
     e( 81 - 82) =     27.92819  eV     2   --> G_6   D_6      

 **************************************************************************

 **************************************************************************

                    xk=(   0.00000,   0.15833,   0.00000  )

     Band symmetry, C_4v (4mm)  double point group:

     e(  1 -  2) =    -77.90397  eV     2   --> G_6   D_6      
     e(  3 -  4) =    -77.89022  eV     2   --> G_6   D_6      
     e(  5 -  6) =    -77.88940  eV     2   --> G_7   D_7      
     e(  7 -  8) =    -43.21040  eV     2   --> G_7   D_7      
     e(  9 - 10) =    -43.20746  eV     2   --> G_6   D_6      
     e( 11 - 12) =    -43.15830  eV     2   --> G_6   D_6      
     e( 13 - 14) =    -28.34663  eV     2   --> G_6   D_6      
     e( 15 - 16) =    -28.31438  eV     2   --> G_6   D_6      
     e( 17 - 18) =    -28.31197  eV     2   --> G_7   D_7      
     e( 19 - 20) =    -28.25249  eV     2   --> G_7   D_7      
     e( 21 - 22) =    -28.14957  eV     2   --> G_6   D_6      
     e( 23 - 24) =    -28.14115  eV     2   --> G_7   D_7      
     e( 25 - 26) =      1.56446  eV     2   --> G_7   D_7      
     e( 27 - 28) =      1.56998  eV     2   --> G_6   D_6      
     e( 29 - 30) =      4.07318  eV     2   --> G_7   D_7      
     e( 31 - 32) =      4.08566  eV     2   --> G_6   D_6      
     e( 33 - 34) =      4.10730  eV     2   --> G_7   D_7      
     e( 35 - 36) =      8.55301  eV     2   --> G_6   D_6      
     e( 37 - 38) =     13.78813  eV     2   --> G_6   D_6      
     e( 39 - 40) =     14.90837  eV     2   --> G_6   D_6      
     e( 41 - 42) =     15.14477  eV     2   --> G_7   D_7      
     e( 43 - 44) =     15.16992  eV     2   --> G_7   D_7      
     e( 45 - 46) =     15.18501  eV     2   --> G_6   D_6      
     e( 47 - 48) =     15.36489  eV     2   --> G_7   D_7      
     e( 49 - 50) =     16.91559  eV     2   --> G_6   D_6      
     e( 51 - 52) =     17.40930  eV     2   --> G_7   D_7      
     e( 53 - 54) =     17.91200  eV     2   --> G_7   D_7      
     e( 55 - 56) =     17.98970  eV     2   --> G_6   D_6      
     e( 57 - 58) =     18.78612  eV     2   --> G_6   D_6      
     e( 59 - 60) =     18.89374  eV     2   --> G_7   D_7      
     e( 61 - 62) =     18.93689  eV     2   --> G_6   D_6      
     e( 63 - 64) =     19.39394  eV     2   --> G_7   D_7      
     e( 65 - 66) =     19.63149  eV     2   --> G_7   D_7      
     e( 67 - 68) =     20.04735  eV     2   --> G_6   D_6      
     e( 69 - 70) =     20.81129  eV     2   --> G_6   D_6      
     e( 71 - 72) =     21.06894  eV     2   --> G_7   D_7      
     e( 73 - 74) =     22.04983  eV     2   --> G_6   D_6      
     e( 75 - 76) =     25.77478  eV     2   --> G_7   D_7      
     e( 77 - 78) =     25.97669  eV     2   --> G_6   D_6      
     e( 79 - 80) =     27.46056  eV     2   --> G_7   D_7      
     e( 81 - 82) =     27.94986  eV     2   --> G_6   D_6      

 **************************************************************************

 **************************************************************************

                    xk=(   0.00000,   0.16667,   0.00000  )

     Band symmetry, C_4v (4mm)  double point group:

     e(  1 -  2) =    -77.90388  eV     2   --> G_6   D_6      
     e(  3 -  4) =    -77.89031  eV     2   --> G_6   D_6      
     e(  5 -  6) =    -77.88940  eV     2   --> G_7   D_7      
     e(  7 -  8) =    -43.21040  eV     2   --> G_7   D_7      
     e(  9 - 10) =    -43.20715  eV     2   --> G_6   D_6      
     e( 11 - 12) =    -43.15861  eV     2   --> G_6   D_6      
     e( 13 - 14) =    -28.34586  eV     2   --> G_6   D_6      
     e( 15 - 16) =    -28.31390  eV     2   --> G_6   D_6      
     e( 17 - 18) =    -28.31136  eV     2   --> G_7   D_7      
     e( 19 - 20) =    -28.25269  eV     2   --> G_7   D_7      
     e( 21 - 22) =    -28.15095  eV     2   --> G_6   D_6      
     e( 23 - 24) =    -28.14162  eV     2   --> G_7   D_7      
     e( 25 - 26) =      1.56488  eV     2   --> G_7   D_7      
     e( 27 - 28) =      1.57095  eV     2   --> G_6   D_6      
     e( 29 - 30) =      4.07389  eV     2   --> G_7   D_7      
     e( 31 - 32) =      4.08760  eV     2   --> G_6   D_6      
     e( 33 - 34) =      4.10793  eV     2   --> G_7   D_7      
     e( 35 - 36) =      8.57896  eV     2   --> G_6   D_6      
     e( 37 - 38) =     13.79759  eV     2   --> G_6   D_6      
     e( 39 - 40) =     14.88101  eV     2   --> G_6   D_6      
     e( 41 - 42) =     15.14983  eV     2   --> G_7   D_7      
     e( 43 - 44) =     15.17412  eV     2   --> G_7   D_7      
     e( 45 - 46) =     15.19031  eV     2   --> G_6   D_6      
     e( 47 - 48) =     15.38392  eV     2   --> G_7   D_7      
     e( 49 - 50) =     16.87121  eV     2   --> G_6   D_6      
     e( 51 - 52) =     17.38640  eV     2   --> G_7   D_7      
     e( 53 - 54) =     17.89743  eV     2   --> G_7   D_7      
     e( 55 - 56) =     17.91985  eV     2   --> G_6   D_6      
     e( 57 - 58) =     18.77065  eV     2   --> G_6   D_6      
     e( 59 - 60) =     18.88032  eV     2   --> G_7   D_7      
     e( 61 - 62) =     18.92733  eV     2   --> G_6   D_6      
     e( 63 - 64) =     19.37292  eV     2   --> G_7   D_7      
     e( 65 - 66) =     19.61355  eV     2   --> G_7   D_7      
     e( 67 - 68) =     20.05657  eV     2   --> G_6   D_6      
     e( 69 - 70) =     20.85978  eV     2   --> G_6   D_6      
     e( 71 - 72) =     21.13803  eV     2   --> G_7   D_7      
     e( 73 - 74) =     22.05464  eV     2   --> G_6   D_6      
     e( 75 - 76) =     25.76482  eV     2   --> G_7   D_7      
     e( 77 - 78) =     26.02511  eV     2   --> G_6   D_6      
     e( 79 - 80) =     27.43479  eV     2   --> G_7   D_7      
     e( 81 - 82) =     27.96714  eV     2   --> G_6   D_6      

 **************************************************************************

 **************************************************************************

                    xk=(   0.00000,   0.17500,   0.00000  )

     Band symmetry, C_4v (4mm)  double point group:

     e(  1 -  2) =    -77.90379  eV     2   --> G_6   D_6      
     e(  3 -  4) =    -77.89040  eV     2   --> G_6   D_6      
     e(  5 -  6) =    -77.88940  eV     2   --> G_7   D_7      
     e(  7 -  8) =    -43.21040  eV     2   --> G_7   D_7      
     e(  9 - 10) =    -43.20683  eV     2   --> G_6   D_6      
     e( 11 - 12) =    -43.15894  eV     2   --> G_6   D_6      
     e( 13 - 14) =    -28.34509  eV     2   --> G_6   D_6      
     e( 15 - 16) =    -28.31336  eV     2   --> G_6   D_6      
     e( 17 - 18) =    -28.31073  eV     2   --> G_7   D_7      
     e( 19 - 20) =    -28.25289  eV     2   --> G_7   D_7      
     e( 21 - 22) =    -28.15238  eV     2   --> G_6   D_6      
     e( 23 - 24) =    -28.14210  eV     2   --> G_7   D_7      
     e( 25 - 26) =      1.56531  eV     2   --> G_7   D_7      
     e( 27 - 28) =      1.57194  eV     2   --> G_6   D_6      
     e( 29 - 30) =      4.07462  eV     2   --> G_7   D_7      
     e( 31 - 32) =      4.08960  eV     2   --> G_6   D_6      
     e( 33 - 34) =      4.10858  eV     2   --> G_7   D_7      
     e( 35 - 36) =      8.60613  eV     2   --> G_6   D_6      
     e( 37 - 38) =     13.80626  eV     2   --> G_6   D_6      
     e( 39 - 40) =     14.85235  eV     2   --> G_6   D_6      
     e( 41 - 42) =     15.15493  eV     2   --> G_7   D_7      
     e( 43 - 44) =     15.17845  eV     2   --> G_7   D_7      
     e( 45 - 46) =     15.19588  eV     2   --> G_6   D_6      
     e( 47 - 48) =     15.40385  eV     2   --> G_7   D_7      
     e( 49 - 50) =     16.82821  eV     2   --> G_6   D_6      
     e( 51 - 52) =     17.36337  eV     2   --> G_7   D_7      
     e( 53 - 54) =     17.85182  eV     2   --> G_6   D_6      
     e( 55 - 56) =     17.88335  eV     2   --> G_7   D_7      
     e( 57 - 58) =     18.75280  eV     2   --> G_6   D_6      
     e( 59 - 60) =     18.86622  eV     2   --> G_7   D_7      
     e( 61 - 62) =     18.91691  eV     2   --> G_6   D_6      
     e( 63 - 64) =     19.35037  eV     2   --> G_7   D_7      
     e( 65 - 66) =     19.59513  eV     2   --> G_7   D_7      
     e( 67 - 68) =     20.06503  eV     2   --> G_6   D_6      
     e( 69 - 70) =     20.91148  eV     2   --> G_6   D_6      
     e( 71 - 72) =     21.20938  eV     2   --> G_7   D_7      
     e( 73 - 74) =     22.05426  eV     2   --> G_6   D_6      
     e( 75 - 76) =     25.75452  eV     2   --> G_7   D_7      
     e( 77 - 78) =     26.07879  eV     2   --> G_6   D_6      
     e( 79 - 80) =     27.40679  eV     2   --> G_7   D_7      
     e( 81 - 82) =     27.97945  eV     2   --> G_6   D_6      

 **************************************************************************

 **************************************************************************

                    xk=(   0.00000,   0.18333,   0.00000  )

     Band symmetry, C_4v (4mm)  double point group:

     e(  1 -  2) =    -77.90370  eV     2   --> G_6   D_6      
     e(  3 -  4) =    -77.89049  eV     2   --> G_6   D_6      
     e(  5 -  6) =    -77.88940  eV     2   --> G_7   D_7      
     e(  7 -  8) =    -43.21041  eV     2   --> G_7   D_7      
     e(  9 - 10) =    -43.20650  eV     2   --> G_6   D_6      
     e( 11 - 12) =    -43.15927  eV     2   --> G_6   D_6      
     e( 13 - 14) =    -28.34430  eV     2   --> G_6   D_6      
     e( 15 - 16) =    -28.31277  eV     2   --> G_6   D_6      
     e( 17 - 18) =    -28.31007  eV     2   --> G_7   D_7      
     e( 19 - 20) =    -28.25312  eV     2   --> G_7   D_7      
     e( 21 - 22) =    -28.15388  eV     2   --> G_6   D_6      
     e( 23 - 24) =    -28.14260  eV     2   --> G_7   D_7      
     e( 25 - 26) =      1.56576  eV     2   --> G_7   D_7      
     e( 27 - 28) =      1.57296  eV     2   --> G_6   D_6      
     e( 29 - 30) =      4.07538  eV     2   --> G_7   D_7      
     e( 31 - 32) =      4.09165  eV     2   --> G_6   D_6      
     e( 33 - 34) =      4.10925  eV     2   --> G_7   D_7      
     e( 35 - 36) =      8.63451  eV     2   --> G_6   D_6      
     e( 37 - 38) =     13.81380  eV     2   --> G_6   D_6      
     e( 39 - 40) =     14.82270  eV     2   --> G_6   D_6      
     e( 41 - 42) =     15.16007  eV     2   --> G_7   D_7      
     e( 43 - 44) =     15.18290  eV     2   --> G_7   D_7      
     e( 45 - 46) =     15.20166  eV     2   --> G_6   D_6      
     e( 47 - 48) =     15.42467  eV     2   --> G_7   D_7      
     e( 49 - 50) =     16.78674  eV     2   --> G_6   D_6      
     e( 51 - 52) =     17.34035  eV     2   --> G_7   D_7      
     e( 53 - 54) =     17.78584  eV     2   --> G_6   D_6      
     e( 55 - 56) =     17.86974  eV     2   --> G_7   D_7      
     e( 57 - 58) =     18.73295  eV     2   --> G_6   D_6      
     e( 59 - 60) =     18.85137  eV     2   --> G_7   D_7      
     e( 61 - 62) =     18.90530  eV     2   --> G_6   D_6      
     e( 63 - 64) =     19.32637  eV     2   --> G_7   D_7      
     e( 65 - 66) =     19.57637  eV     2   --> G_7   D_7      
     e( 67 - 68) =     20.07277  eV     2   --> G_6   D_6      
     e( 69 - 70) =     20.96622  eV     2   --> G_6   D_6      
     e( 71 - 72) =     21.28281  eV     2   --> G_7   D_7      
     e( 73 - 74) =     22.04894  eV     2   --> G_6   D_6      
     e( 75 - 76) =     25.74391  eV     2   --> G_7   D_7      
     e( 77 - 78) =     26.13718  eV     2   --> G_6   D_6      
     e( 79 - 80) =     27.37654  eV     2   --> G_7   D_7      
     e( 81 - 82) =     27.98642  eV     2   --> G_6   D_6      

 **************************************************************************

 **************************************************************************

                    xk=(   0.00000,   0.19167,   0.00000  )

     Band symmetry, C_4v (4mm)  double point group:

     e(  1 -  2) =    -77.90360  eV     2   --> G_6   D_6      
     e(  3 -  4) =    -77.89059  eV     2   --> G_6   D_6      
     e(  5 -  6) =    -77.88940  eV     2   --> G_7   D_7      
     e(  7 -  8) =    -43.21041  eV     2   --> G_7   D_7      
     e(  9 - 10) =    -43.20616  eV     2   --> G_6   D_6      
     e( 11 - 12) =    -43.15963  eV     2   --> G_6   D_6      
     e( 13 - 14) =    -28.34352  eV     2   --> G_6   D_6      
     e( 15 - 16) =    -28.31213  eV     2   --> G_6   D_6      
     e( 17 - 18) =    -28.30938  eV     2   --> G_7   D_7      
     e( 19 - 20) =    -28.25335  eV     2   --> G_7   D_7      
     e( 21 - 22) =    -28.15544  eV     2   --> G_6   D_6      
     e( 23 - 24) =    -28.14312  eV     2   --> G_7   D_7      
     e( 25 - 26) =      1.56621  eV     2   --> G_7   D_7      
     e( 27 - 28) =      1.57400  eV     2   --> G_6   D_6      
     e( 29 - 30) =      4.07615  eV     2   --> G_7   D_7      
     e( 31 - 32) =      4.09376  eV     2   --> G_6   D_6      
     e( 33 - 34) =      4.10994  eV     2   --> G_7   D_7      
     e( 35 - 36) =      8.66407  eV     2   --> G_6   D_6      
     e( 37 - 38) =     13.81981  eV     2   --> G_6   D_6      
     e( 39 - 40) =     14.79247  eV     2   --> G_6   D_6      
     e( 41 - 42) =     15.16523  eV     2   --> G_7   D_7      
     e( 43 - 44) =     15.18746  eV     2   --> G_7   D_7      
     e( 45 - 46) =     15.20759  eV     2   --> G_6   D_6      
     e( 47 - 48) =     15.44632  eV     2   --> G_7   D_7      
     e( 49 - 50) =     16.74695  eV     2   --> G_6   D_6      
     e( 51 - 52) =     17.31752  eV     2   --> G_7   D_7      
     e( 53 - 54) =     17.72206  eV     2   --> G_6   D_6      
     e( 55 - 56) =     17.85658  eV     2   --> G_7   D_7      
     e( 57 - 58) =     18.71145  eV     2   --> G_6   D_6      
     e( 59 - 60) =     18.83574  eV     2   --> G_7   D_7      
     e( 61 - 62) =     18.89229  eV     2   --> G_6   D_6      
     e( 63 - 64) =     19.30099  eV     2   --> G_7   D_7      
     e( 65 - 66) =     19.55742  eV     2   --> G_7   D_7      
     e( 67 - 68) =     20.07980  eV     2   --> G_6   D_6      
     e( 69 - 70) =     21.02379  eV     2   --> G_6   D_6      
     e( 71 - 72) =     21.35817  eV     2   --> G_7   D_7      
     e( 73 - 74) =     22.03901  eV     2   --> G_6   D_6      
     e( 75 - 76) =     25.73300  eV     2   --> G_7   D_7      
     e( 77 - 78) =     26.19961  eV     2   --> G_6   D_6      
     e( 79 - 80) =     27.34405  eV     2   --> G_7   D_7      
     e( 81 - 82) =     27.98791  eV     2   --> G_6   D_6      

 **************************************************************************

 **************************************************************************

                    xk=(   0.00000,   0.20000,   0.00000  )

     Band symmetry, C_4v (4mm)  double point group:

     e(  1 -  2) =    -77.90350  eV     2   --> G_6   D_6      
     e(  3 -  4) =    -77.89069  eV     2   --> G_6   D_6      
     e(  5 -  6) =    -77.88940  eV     2   --> G_7   D_7      
     e(  7 -  8) =    -43.21041  eV     2   --> G_7   D_7      
     e(  9 - 10) =    -43.20580  eV     2   --> G_6   D_6      
     e( 11 - 12) =    -43.15999  eV     2   --> G_6   D_6      
     e( 13 - 14) =    -28.34275  eV     2   --> G_6   D_6      
     e( 15 - 16) =    -28.31141  eV     2   --> G_6   D_6      
     e( 17 - 18) =    -28.30867  eV     2   --> G_7   D_7      
     e( 19 - 20) =    -28.25359  eV     2   --> G_7   D_7      
     e( 21 - 22) =    -28.15706  eV     2   --> G_6   D_6      
     e( 23 - 24) =    -28.14364  eV     2   --> G_7   D_7      
     e( 25 - 26) =      1.56668  eV     2   --> G_7   D_7      
     e( 27 - 28) =      1.57506  eV     2   --> G_6   D_6      
     e( 29 - 30) =      4.07693  eV     2   --> G_7   D_7      
     e( 31 - 32) =      4.09590  eV     2   --> G_6   D_6      
     e( 33 - 34) =      4.11064  eV     2   --> G_7   D_7      
     e( 35 - 36) =      8.69479  eV     2   --> G_6   D_6      
     e( 37 - 38) =     13.82381  eV     2   --> G_6   D_6      
     e( 39 - 40) =     14.76212  eV     2   --> G_6   D_6      
     e( 41 - 42) =     15.17040  eV     2   --> G_7   D_7      
     e( 43 - 44) =     15.19211  eV     2   --> G_7   D_7      
     e( 45 - 46) =     15.21362  eV     2   --> G_6   D_6      
     e( 47 - 48) =     15.46879  eV     2   --> G_7   D_7      
     e( 49 - 50) =     16.70895  eV     2   --> G_6   D_6      
     e( 51 - 52) =     17.29502  eV     2   --> G_7   D_7      
     e( 53 - 54) =     17.66059  eV     2   --> G_6   D_6      
     e( 55 - 56) =     17.84385  eV     2   --> G_7   D_7      
     e( 57 - 58) =     18.68856  eV     2   --> G_6   D_6      
     e( 59 - 60) =     18.81926  eV     2   --> G_7   D_7      
     e( 61 - 62) =     18.87778  eV     2   --> G_6   D_6      
     e( 63 - 64) =     19.27427  eV     2   --> G_7   D_7      
     e( 65 - 66) =     19.53844  eV     2   --> G_7   D_7      
     e( 67 - 68) =     20.08619  eV     2   --> G_6   D_6      
     e( 69 - 70) =     21.08396  eV     2   --> G_6   D_6      
     e( 71 - 72) =     21.43530  eV     2   --> G_7   D_7      
     e( 73 - 74) =     22.02487  eV     2   --> G_6   D_6      
     e( 75 - 76) =     25.72184  eV     2   --> G_7   D_7      
     e( 77 - 78) =     26.26533  eV     2   --> G_6   D_6      
     e( 79 - 80) =     27.30933  eV     2   --> G_7   D_7      
     e( 81 - 82) =     27.98405  eV     2   --> G_6   D_6      

 **************************************************************************

 **************************************************************************

                    xk=(   0.00000,   0.20833,   0.00000  )

     Band symmetry, C_4v (4mm)  double point group:

     e(  1 -  2) =    -77.90340  eV     2   --> G_6   D_6      
     e(  3 -  4) =    -77.89079  eV     2   --> G_6   D_6      
     e(  5 -  6) =    -77.88940  eV     2   --> G_7   D_7      
     e(  7 -  8) =    -43.21042  eV     2   --> G_7   D_7      
     e(  9 - 10) =    -43.20543  eV     2   --> G_6   D_6      
     e( 11 - 12) =    -43.16036  eV     2   --> G_6   D_6      
     e( 13 - 14) =    -28.34198  eV     2   --> G_6   D_6      
     e( 15 - 16) =    -28.31063  eV     2   --> G_6   D_6      
     e( 17 - 18) =    -28.30794  eV     2   --> G_7   D_7      
     e( 19 - 20) =    -28.25385  eV     2   --> G_7   D_7      
     e( 21 - 22) =    -28.15874  eV     2   --> G_6   D_6      
     e( 23 - 24) =    -28.14418  eV     2   --> G_7   D_7      
     e( 25 - 26) =      1.56715  eV     2   --> G_7   D_7      
     e( 27 - 28) =      1.57614  eV     2   --> G_6   D_6      
     e( 29 - 30) =      4.07773  eV     2   --> G_7   D_7      
     e( 31 - 32) =      4.09808  eV     2   --> G_6   D_6      
     e( 33 - 34) =      4.11135  eV     2   --> G_7   D_7      
     e( 35 - 36) =      8.72664  eV     2   --> G_6   D_6      
     e( 37 - 38) =     13.82525  eV     2   --> G_6   D_6      
     e( 39 - 40) =     14.73225  eV     2   --> G_6   D_6      
     e( 41 - 42) =     15.17554  eV     2   --> G_7   D_7      
     e( 43 - 44) =     15.19683  eV     2   --> G_7   D_7      
     e( 45 - 46) =     15.21971  eV     2   --> G_6   D_6      
     e( 47 - 48) =     15.49204  eV     2   --> G_7   D_7      
     e( 49 - 50) =     16.67284  eV     2   --> G_6   D_6      
     e( 51 - 52) =     17.27298  eV     2   --> G_7   D_7      
     e( 53 - 54) =     17.60149  eV     2   --> G_6   D_6      
     e( 55 - 56) =     17.83154  eV     2   --> G_7   D_7      
     e( 57 - 58) =     18.66453  eV     2   --> G_6   D_6      
[...]
     e( 69 - 70) =     20.92497  eV     2   --> G_7   D_7      
     e( 71 - 72) =     20.97071  eV     2   --> G_6   D_6      
     e( 73 - 74) =     24.32739  eV     2   --> G_6   D_6      
     e( 75 - 76) =     26.04942  eV     2   --> G_6   D_6      
     e( 77 - 78) =     27.00541  eV     2   --> G_7   D_7      
     e( 79 - 80) =     27.45282  eV     2   --> G_6   D_6      
     e( 81 - 82) =     28.38428  eV     2   --> G_7   D_7      

 **************************************************************************

 **************************************************************************

                    xk=(   0.50000,   0.50000,   0.04167  )

     Band symmetry, C_4v (4mm)  double point group:

     e(  1 -  6) =    -77.89452  eV     6   --> G_6   D_6      
     e(  1 -  6) =    -77.89452  eV     6   -->   2 G_7   D_7      
     e(  7 -  8) =    -43.19262  eV     2   --> G_6   D_6      
     e(  9 - 10) =    -43.19227  eV     2   --> G_7   D_7      
     e( 11 - 12) =    -43.19209  eV     2   --> G_7   D_7      
     e( 13 - 14) =    -28.32910  eV     2   --> G_6   D_6      
     e( 15 - 16) =    -28.30010  eV     2   --> G_7   D_7      
     e( 17 - 18) =    -28.27056  eV     2   --> G_6   D_6      
     e( 19 - 20) =    -28.23934  eV     2   --> G_7   D_7      
     e( 21 - 22) =    -28.20569  eV     2   --> G_7   D_7      
     e( 23 - 24) =    -28.18124  eV     2   --> G_6   D_6      
     e( 25 - 26) =      1.59684  eV     2   --> G_6   D_6      
     e( 27 - 28) =      1.59935  eV     2   --> G_7   D_7      
     e( 29 - 30) =      4.10185  eV     2   --> G_7   D_7      
     e( 31 - 32) =      4.13224  eV     2   --> G_6   D_6      
     e( 33 - 34) =      4.18620  eV     2   --> G_7   D_7      
     e( 35 - 36) =     10.69771  eV     2   --> G_6   D_6      
     e( 37 - 38) =     13.77688  eV     2   --> G_6   D_6      
     e( 39 - 40) =     13.88586  eV     2   --> G_7   D_7      
     e( 41 - 42) =     14.97655  eV     2   --> G_6   D_6      
     e( 43 - 44) =     15.63494  eV     2   --> G_7   D_7      
     e( 45 - 46) =     15.82694  eV     2   --> G_6   D_6      
     e( 47 - 48) =     15.86098  eV     2   --> G_7   D_7      
     e( 49 - 50) =     16.10110  eV     2   --> G_7   D_7      
     e( 51 - 52) =     16.66769  eV     2   --> G_7   D_7      
     e( 53 - 54) =     16.79741  eV     2   --> G_6   D_6      
     e( 55 - 56) =     17.55362  eV     2   --> G_6   D_6      
     e( 57 - 58) =     17.74051  eV     2   --> G_7   D_7      
     e( 59 - 60) =     17.83178  eV     2   --> G_6   D_6      
     e( 61 - 62) =     18.22526  eV     2   --> G_7   D_7      
     e( 63 - 64) =     18.42154  eV     2   --> G_7   D_7      
     e( 65 - 66) =     18.55043  eV     2   --> G_6   D_6      
     e( 67 - 68) =     18.91010  eV     2   --> G_6   D_6      
     e( 69 - 70) =     20.92898  eV     2   --> G_7   D_7      
     e( 71 - 72) =     20.97640  eV     2   --> G_6   D_6      
     e( 73 - 74) =     24.41230  eV     2   --> G_6   D_6      
     e( 75 - 76) =     26.04875  eV     2   --> G_6   D_6      
     e( 77 - 78) =     27.12391  eV     2   --> G_7   D_7      
     e( 79 - 80) =     27.44927  eV     2   --> G_6   D_6      
     e( 81 - 82) =     28.41992  eV     2   --> G_7   D_7      

 **************************************************************************

 **************************************************************************

                    xk=(   0.50000,   0.50000,   0.03333  )

     Band symmetry, C_4v (4mm)  double point group:

     e(  1 -  6) =    -77.89452  eV     6   --> G_6   D_6      
     e(  1 -  6) =    -77.89452  eV     6   -->   2 G_7   D_7      
     e(  7 -  8) =    -43.19262  eV     2   --> G_6   D_6      
     e(  9 - 10) =    -43.19227  eV     2   --> G_7   D_7      
     e( 11 - 12) =    -43.19209  eV     2   --> G_7   D_7      
     e( 13 - 14) =    -28.32869  eV     2   --> G_6   D_6      
     e( 15 - 16) =    -28.29983  eV     2   --> G_7   D_7      
     e( 17 - 18) =    -28.27075  eV     2   --> G_6   D_6      
     e( 19 - 20) =    -28.23886  eV     2   --> G_7   D_7      
     e( 21 - 22) =    -28.20644  eV     2   --> G_7   D_7      
     e( 23 - 24) =    -28.18145  eV     2   --> G_6   D_6      
     e( 25 - 26) =      1.59693  eV     2   --> G_6   D_6      
     e( 27 - 28) =      1.59947  eV     2   --> G_7   D_7      
     e( 29 - 30) =      4.10212  eV     2   --> G_7   D_7      
     e( 31 - 32) =      4.13217  eV     2   --> G_6   D_6      
     e( 33 - 34) =      4.18652  eV     2   --> G_7   D_7      
     e( 35 - 36) =     10.70057  eV     2   --> G_6   D_6      
     e( 37 - 38) =     13.77164  eV     2   --> G_6   D_6      
     e( 39 - 40) =     13.88099  eV     2   --> G_7   D_7      
     e( 41 - 42) =     14.96812  eV     2   --> G_6   D_6      
     e( 43 - 44) =     15.66417  eV     2   --> G_7   D_7      
     e( 45 - 46) =     15.82721  eV     2   --> G_6   D_6      
     e( 47 - 48) =     15.86332  eV     2   --> G_7   D_7      
     e( 49 - 50) =     16.06799  eV     2   --> G_7   D_7      
     e( 51 - 52) =     16.66876  eV     2   --> G_7   D_7      
     e( 53 - 54) =     16.80142  eV     2   --> G_6   D_6      
     e( 55 - 56) =     17.56548  eV     2   --> G_6   D_6      
     e( 57 - 58) =     17.73289  eV     2   --> G_7   D_7      
     e( 59 - 60) =     17.82035  eV     2   --> G_6   D_6      
     e( 61 - 62) =     18.22090  eV     2   --> G_7   D_7      
     e( 63 - 64) =     18.42034  eV     2   --> G_7   D_7      
     e( 65 - 66) =     18.54588  eV     2   --> G_6   D_6      
     e( 67 - 68) =     18.90471  eV     2   --> G_6   D_6      
     e( 69 - 70) =     20.93224  eV     2   --> G_7   D_7      
     e( 71 - 72) =     20.98102  eV     2   --> G_6   D_6      
     e( 73 - 74) =     24.48765  eV     2   --> G_6   D_6      
     e( 75 - 76) =     26.03825  eV     2   --> G_6   D_6      
     e( 77 - 78) =     27.23636  eV     2   --> G_7   D_7      
     e( 79 - 80) =     27.45821  eV     2   --> G_6   D_6      
     e( 81 - 82) =     28.42240  eV     2   --> G_7   D_7      

 **************************************************************************

 **************************************************************************

                    xk=(   0.50000,   0.50000,   0.02500  )

     Band symmetry, C_4v (4mm)  double point group:

     e(  1 -  6) =    -77.89452  eV     6   --> G_6   D_6      
     e(  1 -  6) =    -77.89452  eV     6   -->   2 G_7   D_7      
     e(  7 -  8) =    -43.19262  eV     2   --> G_6   D_6      
     e(  9 - 10) =    -43.19227  eV     2   --> G_7   D_7      
     e( 11 - 12) =    -43.19209  eV     2   --> G_7   D_7      
     e( 13 - 14) =    -28.32837  eV     2   --> G_6   D_6      
     e( 15 - 16) =    -28.29962  eV     2   --> G_7   D_7      
     e( 17 - 18) =    -28.27091  eV     2   --> G_6   D_6      
     e( 19 - 20) =    -28.23847  eV     2   --> G_7   D_7      
     e( 21 - 22) =    -28.20704  eV     2   --> G_7   D_7      
     e( 23 - 24) =    -28.18162  eV     2   --> G_6   D_6      
     e( 25 - 26) =      1.59700  eV     2   --> G_6   D_6      
     e( 27 - 28) =      1.59956  eV     2   --> G_7   D_7      
     e( 29 - 30) =      4.10233  eV     2   --> G_7   D_7      
     e( 31 - 32) =      4.13211  eV     2   --> G_6   D_6      
     e( 33 - 34) =      4.18677  eV     2   --> G_7   D_7      
     e( 35 - 36) =     10.70280  eV     2   --> G_6   D_6      
     e( 37 - 38) =     13.76754  eV     2   --> G_6   D_6      
     e( 39 - 40) =     13.87719  eV     2   --> G_7   D_7      
     e( 41 - 42) =     14.96156  eV     2   --> G_6   D_6      
     e( 43 - 44) =     15.68984  eV     2   --> G_7   D_7      
     e( 45 - 46) =     15.82743  eV     2   --> G_6   D_6      
     e( 47 - 48) =     15.86765  eV     2   --> G_7   D_7      
     e( 49 - 50) =     16.03664  eV     2   --> G_7   D_7      
     e( 51 - 52) =     16.66983  eV     2   --> G_7   D_7      
     e( 53 - 54) =     16.80459  eV     2   --> G_6   D_6      
     e( 55 - 56) =     17.57545  eV     2   --> G_6   D_6      
     e( 57 - 58) =     17.72690  eV     2   --> G_7   D_7      
     e( 59 - 60) =     17.81076  eV     2   --> G_6   D_6      
     e( 61 - 62) =     18.21749  eV     2   --> G_7   D_7      
     e( 63 - 64) =     18.41940  eV     2   --> G_7   D_7      
     e( 65 - 66) =     18.54218  eV     2   --> G_6   D_6      
     e( 67 - 68) =     18.90057  eV     2   --> G_6   D_6      
     e( 69 - 70) =     20.93477  eV     2   --> G_7   D_7      
     e( 71 - 72) =     20.98460  eV     2   --> G_6   D_6      
     e( 73 - 74) =     24.55082  eV     2   --> G_6   D_6      
     e( 75 - 76) =     26.02241  eV     2   --> G_6   D_6      
     e( 77 - 78) =     27.33875  eV     2   --> G_7   D_7      
     e( 79 - 80) =     27.47463  eV     2   --> G_6   D_6      
     e( 81 - 82) =     28.39519  eV     2   --> G_7   D_7      

 **************************************************************************

 **************************************************************************

                    xk=(   0.50000,   0.50000,   0.01667  )

     Band symmetry, C_4v (4mm)  double point group:

     e(  1 -  6) =    -77.89452  eV     6   --> G_6   D_6      
     e(  1 -  6) =    -77.89452  eV     6   -->   2 G_7   D_7      
     e(  7 -  8) =    -43.19262  eV     2   --> G_6   D_6      
     e(  9 - 10) =    -43.19226  eV     2   --> G_7   D_7      
     e( 11 - 12) =    -43.19210  eV     2   --> G_7   D_7      
     e( 13 - 14) =    -28.32814  eV     2   --> G_6   D_6      
     e( 15 - 16) =    -28.29947  eV     2   --> G_7   D_7      
     e( 17 - 18) =    -28.27102  eV     2   --> G_6   D_6      
     e( 19 - 20) =    -28.23818  eV     2   --> G_7   D_7      
     e( 21 - 22) =    -28.20748  eV     2   --> G_7   D_7      
     e( 23 - 24) =    -28.18174  eV     2   --> G_6   D_6      
     e( 25 - 26) =      1.59705  eV     2   --> G_6   D_6      
     e( 27 - 28) =      1.59962  eV     2   --> G_7   D_7      
     e( 29 - 30) =      4.10248  eV     2   --> G_7   D_7      
     e( 31 - 32) =      4.13206  eV     2   --> G_6   D_6      
     e( 33 - 34) =      4.18695  eV     2   --> G_7   D_7      
     e( 35 - 36) =     10.70440  eV     2   --> G_6   D_6      
     e( 37 - 38) =     13.76461  eV     2   --> G_6   D_6      
     e( 39 - 40) =     13.87447  eV     2   --> G_7   D_7      
     e( 41 - 42) =     14.95686  eV     2   --> G_6   D_6      
     e( 43 - 44) =     15.71018  eV     2   --> G_7   D_7      
     e( 45 - 46) =     15.82759  eV     2   --> G_6   D_6      
     e( 47 - 48) =     15.87411  eV     2   --> G_7   D_7      
     e( 49 - 50) =     16.00879  eV     2   --> G_7   D_7      
     e( 51 - 52) =     16.67071  eV     2   --> G_7   D_7      
     e( 53 - 54) =     16.80689  eV     2   --> G_6   D_6      
     e( 55 - 56) =     17.58307  eV     2   --> G_6   D_6      
     e( 57 - 58) =     17.72258  eV     2   --> G_7   D_7      
     e( 59 - 60) =     17.80344  eV     2   --> G_6   D_6      
     e( 61 - 62) =     18.21504  eV     2   --> G_7   D_7      
     e( 63 - 64) =     18.41874  eV     2   --> G_7   D_7      
     e( 65 - 66) =     18.53944  eV     2   --> G_6   D_6      
     e( 67 - 68) =     18.89763  eV     2   --> G_6   D_6      
     e( 69 - 70) =     20.93657  eV     2   --> G_7   D_7      
     e( 71 - 72) =     20.98715  eV     2   --> G_6   D_6      
     e( 73 - 74) =     24.59895  eV     2   --> G_6   D_6      
     e( 75 - 76) =     26.00623  eV     2   --> G_6   D_6      
     e( 77 - 78) =     27.42451  eV     2   --> G_7   D_7      
     e( 79 - 80) =     27.49265  eV     2   --> G_6   D_6      
     e( 81 - 82) =     28.35307  eV     2   --> G_7   D_7      

 **************************************************************************

 **************************************************************************

                    xk=(   0.50000,   0.50000,   0.00833  )

     Band symmetry, C_4v (4mm)  double point group:

     e(  1 -  6) =    -77.89452  eV     6   --> G_6   D_6      
     e(  1 -  6) =    -77.89452  eV     6   -->   2 G_7   D_7      
     e(  7 -  8) =    -43.19262  eV     2   --> G_6   D_6      
     e(  9 - 10) =    -43.19226  eV     2   --> G_7   D_7      
     e( 11 - 12) =    -43.19210  eV     2   --> G_7   D_7      
     e( 13 - 14) =    -28.32800  eV     2   --> G_6   D_6      
     e( 15 - 16) =    -28.29938  eV     2   --> G_7   D_7      
     e( 17 - 18) =    -28.27109  eV     2   --> G_6   D_6      
     e( 19 - 20) =    -28.23800  eV     2   --> G_7   D_7      
     e( 21 - 22) =    -28.20775  eV     2   --> G_7   D_7      
     e( 23 - 24) =    -28.18181  eV     2   --> G_6   D_6      
     e( 25 - 26) =      1.59708  eV     2   --> G_6   D_6      
     e( 27 - 28) =      1.59966  eV     2   --> G_7   D_7      
     e( 29 - 30) =      4.10257  eV     2   --> G_7   D_7      
     e( 31 - 32) =      4.13204  eV     2   --> G_6   D_6      
     e( 33 - 34) =      4.18705  eV     2   --> G_7   D_7      
     e( 35 - 36) =     10.70536  eV     2   --> G_6   D_6      
     e( 37 - 38) =     13.76285  eV     2   --> G_6   D_6      
     e( 39 - 40) =     13.87284  eV     2   --> G_7   D_7      
     e( 41 - 42) =     14.95403  eV     2   --> G_6   D_6      
     e( 43 - 44) =     15.72332  eV     2   --> G_7   D_7      
     e( 45 - 46) =     15.82769  eV     2   --> G_6   D_6      
     e( 47 - 48) =     15.88129  eV     2   --> G_7   D_7      
     e( 49 - 50) =     15.98781  eV     2   --> G_7   D_7      
     e( 51 - 52) =     16.67129  eV     2   --> G_7   D_7      
     e( 53 - 54) =     16.80827  eV     2   --> G_6   D_6      
     e( 55 - 56) =     17.58788  eV     2   --> G_6   D_6      
     e( 57 - 58) =     17.71997  eV     2   --> G_7   D_7      
     e( 59 - 60) =     17.79881  eV     2   --> G_6   D_6      
     e( 61 - 62) =     18.21356  eV     2   --> G_7   D_7      
     e( 63 - 64) =     18.41835  eV     2   --> G_7   D_7      
     e( 65 - 66) =     18.53777  eV     2   --> G_6   D_6      
     e( 67 - 68) =     18.89587  eV     2   --> G_6   D_6      
     e( 69 - 70) =     20.93765  eV     2   --> G_7   D_7      
     e( 71 - 72) =     20.98867  eV     2   --> G_6   D_6      
     e( 73 - 74) =     24.62924  eV     2   --> G_6   D_6      
     e( 75 - 76) =     25.99431  eV     2   --> G_6   D_6      
     e( 77 - 78) =     27.48379  eV     2   --> G_7   D_7      
     e( 79 - 80) =     27.50645  eV     2   --> G_6   D_6      
     e( 81 - 82) =     28.31578  eV     2   --> G_7   D_7      

 **************************************************************************

 **************************************************************************

                    xk=(   0.50000,   0.50000,   0.00000  )

     double point group D_4h(4/mmm)
     there are 14 classes and  4 irreducible representations
     the character table:

       E     -E    2C4   -2C4   C2    2C2' 2C2'' i     -i    2S4   -2S4   s_h 
                               -C2   -2C2' -2C2'                         -s_h 
G_6+   2.00 -2.00  1.41 -1.41  0.00  0.00  0.00  2.00 -2.00  1.41 -1.41  0.00
G_7+   2.00 -2.00 -1.41  1.41  0.00  0.00  0.00  2.00 -2.00 -1.41  1.41  0.00
G_6-   2.00 -2.00  1.41 -1.41  0.00  0.00  0.00 -2.00  2.00 -1.41  1.41  0.00
G_7-   2.00 -2.00 -1.41  1.41  0.00  0.00  0.00 -2.00  2.00  1.41 -1.41  0.00

        2s_v  2s_d
       -2s_v -2s_d
G_6+   0.00  0.00
G_7+   0.00  0.00
G_6-   0.00  0.00
G_7-   0.00  0.00

     the symmetry operations in each class and the name of the first element:

     E             1
                                                                 
     -E           -1
                                                                 
     2C4           7    8
                                                                 
     -2C4         -7   -8
                                                                 
      C2  -C2      2   -2
                                                                 
      2C2'-2C2'    3   -3    4   -4
                                                                 
     2C2''-2C2'    5   -5   -6    6
                                                                 
     i             9
                                                                 
     -i           -9
                                                                 
     2S4          15   16
                                                                 
     -2S4        -15  -16
                                                                 
      s_h -s_h    10  -10
                                                                 
      2s_v-2s_v   11  -11   12  -12
                                                                 
      2s_d-2s_d   13  -13  -14   14
                                                                 

     Band symmetry, D_4h(4/mmm) double point group:

     e(  1 -  6) =    -77.89452  eV     6   --> G_7+  M_7+     
     e(  1 -  6) =    -77.89452  eV     6   --> G_6-  M_6-     
     e(  1 -  6) =    -77.89452  eV     6   --> G_7-  M_7-     
     e(  7 -  8) =    -43.19262  eV     2   --> G_6+  M_6+     
     e(  9 - 10) =    -43.19226  eV     2   --> G_7-  M_7-     
     e( 11 - 12) =    -43.19210  eV     2   --> G_7+  M_7+     
     e( 13 - 14) =    -28.32796  eV     2   --> G_6+  M_6+     
     e( 15 - 16) =    -28.29935  eV     2   --> G_7+  M_7+     
     e( 17 - 18) =    -28.27111  eV     2   --> G_6-  M_6-     
     e( 19 - 20) =    -28.23794  eV     2   --> G_7-  M_7-     
     e( 21 - 22) =    -28.20784  eV     2   --> G_7+  M_7+     
     e( 23 - 24) =    -28.18184  eV     2   --> G_6+  M_6+     
     e( 25 - 26) =      1.59710  eV     2   --> G_6+  M_6+     
     e( 27 - 28) =      1.59967  eV     2   --> G_7+  M_7+     
     e( 29 - 30) =      4.10260  eV     2   --> G_7+  M_7+     
     e( 31 - 32) =      4.13203  eV     2   --> G_6+  M_6+     
     e( 33 - 34) =      4.18709  eV     2   --> G_7+  M_7+     
     e( 35 - 36) =     10.70568  eV     2   --> G_6+  M_6+     
     e( 37 - 38) =     13.76226  eV     2   --> G_6-  M_6-     
     e( 39 - 40) =     13.87229  eV     2   --> G_7-  M_7-     
     e( 41 - 42) =     14.95309  eV     2   --> G_6-  M_6-     
     e( 43 - 44) =     15.72786  eV     2   --> G_7-  M_7-     
     e( 45 - 46) =     15.82773  eV     2   --> G_6-  M_6-     
     e( 47 - 48) =     15.88484  eV     2   --> G_7+  M_7+     
     e( 49 - 50) =     15.97950  eV     2   --> G_7-  M_7-     
     e( 51 - 52) =     16.67149  eV     2   --> G_7+  M_7+     
     e( 53 - 54) =     16.80874  eV     2   --> G_6+  M_6+     
     e( 55 - 56) =     17.58953  eV     2   --> G_6-  M_6-     
     e( 57 - 58) =     17.71910  eV     2   --> G_7-  M_7-     
     e( 59 - 60) =     17.79723  eV     2   --> G_6+  M_6+     
     e( 61 - 62) =     18.21307  eV     2   --> G_7+  M_7+     
     e( 63 - 64) =     18.41822  eV     2   --> G_7-  M_7-     
     e( 65 - 66) =     18.53720  eV     2   --> G_6-  M_6-     
     e( 67 - 68) =     18.89529  eV     2   --> G_6+  M_6+     
     e( 69 - 70) =     20.93801  eV     2   --> G_7-  M_7-     
     e( 71 - 72) =     20.98918  eV     2   --> G_6-  M_6-     
     e( 73 - 74) =     24.63960  eV     2   --> G_6+  M_6+     
     e( 75 - 76) =     25.98994  eV     2   --> G_6-  M_6-     
     e( 77 - 78) =     27.50537  eV     2   --> G_7-  M_7-     
     e( 79 - 80) =     27.51161  eV     2   --> G_6-  M_6-     
     e( 81 - 82) =     28.30086  eV     2   --> G_7+  M_7+     

 **************************************************************************
 
     BANDS        :  9m59.65s CPU    10m 8.80s WALL

 
   This run was terminated on:  20:36:35  15Apr2020            

=------------------------------------------------------------------------------=
   JOB DONE.
=------------------------------------------------------------------------------=
