mpijob CMD    : mpirun -f /tmp/mpiexec.params.k050801.208020
mpijob PARAMS : -d /home/k0508/k050801/qeirreps/ver_5/qeirreps/reference/PbPt3_soc
        r1i5n19 10 omplace -nt 4 "/home/k0508/k050801/qe-6.6/bin/bands.x"

SGI MPT Placement option
--------------------------
omplace -nt 4

Node   MPI
------------
r1i5n19 10


     Program BANDS v.6.6 starts on 29Nov2020 at 21: 5:50 

     This program is part of the open-source Quantum ESPRESSO suite
     for quantum simulation of materials; please cite
         "P. Giannozzi et al., J. Phys.:Condens. Matter 21 395502 (2009);
         "P. Giannozzi et al., J. Phys.:Condens. Matter 29 465901 (2017);
          URL http://www.quantum-espresso.org", 
     in publications or presentations arising from this work. More details at
     http://www.quantum-espresso.org/quote

     Parallel version (MPI), running on    10 processors

     MPI processes distributed on     1 nodes
     R & G space division:  proc/nbgrp/npool/nimage =      10
     Fft bands division:     nmany     =       1

     Reading xml data from directory:

     /work/k0508/k050801/PbPt3/band/PbPt3.save/

     IMPORTANT: XC functional enforced from input :
     Exchange-correlation= PBE
                           (   1   4   3   4   0   0   0)
     Any further DFT definition will be discarded
     Please, verify this is what you really want

 
     Parallelization info
     --------------------
     sticks:   dense  smooth     PW     G-vecs:    dense   smooth      PW
     Min         194     194     55                 6422     6422     979
     Max         195     195     56                 6426     6426     982
     Sum        1941    1941    553                64229    64229    9795
 
     Reading collected, re-writing distributed wavefunctions
     high-symmetry point:  0.0000 0.0000 0.0000   x coordinate   0.0000
     high-symmetry point:  0.0000 0.5000 0.0000   x coordinate   0.5000
     high-symmetry point:  0.5000 0.5000 0.0000   x coordinate   1.0000
     high-symmetry point:  0.0000 0.0000 0.0000   x coordinate   1.7071
     high-symmetry point:  0.5000 0.5000 0.5000   x coordinate   2.5731
     high-symmetry point:  0.0000 0.5000 0.0000   x coordinate   3.2802
     high-symmetry point:  0.5000 0.5000 0.5000   x coordinate   3.2802
     high-symmetry point:  0.5000 0.5000 0.0000   x coordinate   3.7802

     Plottable bands (eV) written to file PbPt3.band.gnu
     Bands written to file PbPt3.band

 **************************************************************************

                    xk=(   0.00000,   0.00000,   0.00000  )

     double point group O_h (m-3m) 
     there are 16 classes and  6 irreducible representations
     the character table:

       E     -E    8C3   -8C3   3C2  6C4   -6C4   6C2' i     -i    8S6   -8S6 
                               -3C2              -6C2'                        
G_6+   2.00 -2.00  1.00 -1.00  0.00  1.41 -1.41  0.00  2.00 -2.00  1.00 -1.00
G_7+   2.00 -2.00  1.00 -1.00  0.00 -1.41  1.41  0.00  2.00 -2.00  1.00 -1.00
G_8+   4.00 -4.00 -1.00  1.00  0.00  0.00  0.00  0.00  4.00 -4.00 -1.00  1.00
G_6-   2.00 -2.00  1.00 -1.00  0.00  1.41 -1.41  0.00 -2.00  2.00 -1.00  1.00
G_7-   2.00 -2.00  1.00 -1.00  0.00 -1.41  1.41  0.00 -2.00  2.00 -1.00  1.00
G_8-   4.00 -4.00 -1.00  1.00  0.00  0.00  0.00  0.00 -4.00  4.00  1.00 -1.00

        3s_h 6S4   -6S4   6s_d
       -3s_h             -6s_d
G_6+   0.00  1.41 -1.41  0.00
G_7+   0.00 -1.41  1.41  0.00
G_8+   0.00  0.00  0.00  0.00
G_6-   0.00 -1.41  1.41  0.00
G_7-   0.00  1.41 -1.41  0.00
G_8-   0.00  0.00  0.00  0.00

     the symmetry operations in each class and the name of the first element:

     E             1
                                                                 
     -E           -1
                                                                 
     8C3          17   19   20   18   24   21   22   23
                                                                 
     -8C3        -17  -19  -20  -18  -24  -21  -22  -23
                                                                 
      3C2 -3C2     2   -2    4   -4    3   -3
                                                                 
     6C4           7    8   15   16   12   11
                                                                 
     -6C4         -7   -8  -15  -16  -12  -11
                                                                 
      6C2'-6C2'    5   -5   -6    6   14  -13  -14   13   10   -9  -10    9
                                                                 
     i            25
                                                                 
     -i          -25
                                                                 
     8S6          41   43   44   42   48   45   46   47
                                                                 
     -8S6        -41  -43  -44  -42  -48  -45  -46  -47
                                                                 
      3s_h-3s_h   26  -26   28  -28   27  -27
                                                                 
     6S4          31   32   39   40   36   35
                                                                 
     -6S4        -31  -32  -39  -40  -36  -35
                                                                 
      6s_d-6s_d   29  -29  -30   30   38  -37  -38   37   34  -33  -34   33
                                                                 

     Band symmetry, O_h (m-3m)  double point group:

     e(  1 -  2) =    -77.90517  eV     2   --> G_6+           
     e(  3 -  6) =    -77.88978  eV     4   --> G_8+           
     e(  7 - 10) =    -43.21072  eV     4   --> G_8-           
     e( 11 - 12) =    -43.15566  eV     2   --> G_6-           
     e( 13 - 14) =    -28.35533  eV     2   --> G_6-           
     e( 15 - 18) =    -28.31817  eV     4   --> G_8-           
     e( 19 - 20) =    -28.25105  eV     2   --> G_7-           
     e( 21 - 24) =    -28.13680  eV     4   --> G_8-           
     e( 25 - 28) =      1.56035  eV     4   --> G_8+           
     e( 29 - 32) =      4.06606  eV     4   --> G_8+           
     e( 33 - 34) =      4.10110  eV     2   --> G_7+           
     e( 35 - 36) =      8.30852  eV     2   --> G_6+           
     e( 37 - 38) =     13.66009  eV     2   --> G_6+           
     e( 39 - 42) =     15.08394  eV     4   --> G_8+           
     e( 43 - 44) =     15.12671  eV     2   --> G_7+           
     e( 45 - 48) =     15.19106  eV     4   --> G_8+           
     e( 49 - 52) =     17.65242  eV     4   --> G_8+           
     e( 53 - 54) =     18.16557  eV     2   --> G_7+           
     e( 55 - 56) =     18.43680  eV     2   --> G_6-           
     e( 57 - 60) =     19.05867  eV     4   --> G_8+           
     e( 61 - 64) =     19.46660  eV     4   --> G_8-           
     e( 65 - 66) =     19.68540  eV     2   --> G_6+           
     e( 67 - 68) =     19.79349  eV     2   --> G_7+           
     e( 69 - 72) =     20.40967  eV     4   --> G_8+           
     e( 73 - 74) =     21.50195  eV     2   --> G_6+           
     e( 75 - 78) =     25.87427  eV     4   --> G_8+           
     e( 79 - 80) =     27.47679  eV     2   --> G_6-           
     e( 81 - 82) =     27.63129  eV     2   -->   ?

 **************************************************************************

 **************************************************************************

                    xk=(   0.00000,   0.00833,   0.00000  )

     double point group C_4v (4mm) 
     there are  7 classes and  2 irreducible representations
     the character table:

       E     -E    2C4   -2C4   C2    2s_v  2s_d
                               -C2   -2s_v -2s_d
G_6    2.00 -2.00  1.41 -1.41  0.00  0.00  0.00
G_7    2.00 -2.00 -1.41  1.41  0.00  0.00  0.00

     the symmetry operations in each class and the name of the first element:

     E             1
                                                                 
     -E           -1
                                                                 
     2C4           3    4
                                                                 
     -2C4         -3   -4
                                                                 
      C2  -C2      2   -2
                                                                 
      2s_v-2s_v    5   -5    6   -6
                                                                 
      2s_d-2s_d    7   -7   -8    8
                                                                 

     Band symmetry, C_4v (4mm)  double point group:

     e(  1 -  2) =    -77.90516  eV     2   --> G_6   D_6      
     e(  3 -  6) =    -77.88978  eV     4   --> G_6   D_6      
     e(  3 -  6) =    -77.88978  eV     4   --> G_7   D_7      
     e(  7 - 10) =    -43.21072  eV     4   --> G_6   D_6      
     e(  7 - 10) =    -43.21072  eV     4   --> G_7   D_7      
     e( 11 - 12) =    -43.15567  eV     2   --> G_6   D_6      
     e( 13 - 14) =    -28.35531  eV     2   --> G_6   D_6      
     e( 15 - 18) =    -28.31816  eV     4   --> G_6   D_6      
     e( 15 - 18) =    -28.31816  eV     4   --> G_7   D_7      
     e( 19 - 20) =    -28.25105  eV     2   --> G_7   D_7      
     e( 21 - 24) =    -28.13684  eV     4   --> G_6   D_6      
     e( 21 - 24) =    -28.13684  eV     4   --> G_7   D_7      
     e( 25 - 28) =      1.56036  eV     4   --> G_6   D_6      
     e( 25 - 28) =      1.56036  eV     4   --> G_7   D_7      
     e( 29 - 32) =      4.06609  eV     4   --> G_6   D_6      
     e( 29 - 32) =      4.06609  eV     4   --> G_7   D_7      
     e( 33 - 34) =      4.10112  eV     2   --> G_7   D_7      
     e( 35 - 36) =      8.30920  eV     2   --> G_6   D_6      
     e( 37 - 38) =     13.66051  eV     2   --> G_6   D_6      
     e( 39 - 40) =     15.08393  eV     2   --> G_6   D_6      
     e( 41 - 42) =     15.08416  eV     2   --> G_7   D_7      
     e( 43 - 44) =     15.12685  eV     2   --> G_7   D_7      
     e( 45 - 46) =     15.19066  eV     2   --> G_6   D_6      
     e( 47 - 48) =     15.19151  eV     2   --> G_7   D_7      
     e( 49 - 50) =     17.64817  eV     2   --> G_6   D_6      
     e( 51 - 52) =     17.65174  eV     2   --> G_7   D_7      
     e( 53 - 54) =     18.16429  eV     2   --> G_7   D_7      
     e( 55 - 56) =     18.43980  eV     2   --> G_6   D_6      
     e( 57 - 58) =     19.05774  eV     2   --> G_7   D_7      
     e( 59 - 60) =     19.05789  eV     2   --> G_6   D_6      
     e( 61 - 62) =     19.45104  eV     2   --> G_6   D_6      
     e( 63 - 64) =     19.46755  eV     2   --> G_7   D_7      
     e( 65 - 66) =     19.69640  eV     2   --> G_6   D_6      
     e( 67 - 68) =     19.79311  eV     2   --> G_7   D_7      
     e( 69 - 70) =     20.41092  eV     2   --> G_6   D_6      
     e( 71 - 72) =     20.41121  eV     2   --> G_7   D_7      
     e( 73 - 74) =     21.50573  eV     2   --> G_6   D_6      
     e( 75 - 76) =     25.87284  eV     2   --> G_6   D_6      
     e( 77 - 78) =     25.87398  eV     2   --> G_7   D_7      
     e( 79 - 80) =     27.47953  eV     2   --> G_6   D_6      
     e( 81 - 82) =     27.63107  eV     2   --> G_7   D_7      

 **************************************************************************

 **************************************************************************

                    xk=(   0.00000,   0.01667,   0.00000  )

     Band symmetry, C_4v (4mm)  double point group:

     e(  1 -  2) =    -77.90516  eV     2   --> G_6   D_6      
     e(  3 -  6) =    -77.88979  eV     4   --> G_6   D_6      
     e(  3 -  6) =    -77.88979  eV     4   --> G_7   D_7      
     e(  7 - 10) =    -43.21072  eV     4   --> G_6   D_6      
     e(  7 - 10) =    -43.21072  eV     4   --> G_7   D_7      
     e( 11 - 12) =    -43.15570  eV     2   --> G_6   D_6      
     e( 13 - 14) =    -28.35523  eV     2   --> G_6   D_6      
     e( 15 - 18) =    -28.31814  eV     4   --> G_6   D_6      
     e( 15 - 18) =    -28.31814  eV     4   --> G_7   D_7      
     e( 19 - 20) =    -28.25107  eV     2   --> G_7   D_7      
     e( 21 - 24) =    -28.13695  eV     4   --> G_6   D_6      
     e( 21 - 24) =    -28.13695  eV     4   --> G_7   D_7      
     e( 25 - 28) =      1.56040  eV     4   --> G_6   D_6      
     e( 25 - 28) =      1.56040  eV     4   --> G_7   D_7      
     e( 29 - 30) =      4.06615  eV     2   --> G_7   D_7      
     e( 31 - 32) =      4.06630  eV     2   --> G_6   D_6      
     e( 33 - 34) =      4.10117  eV     2   --> G_7   D_7      
     e( 35 - 36) =      8.31127  eV     2   --> G_6   D_6      
     e( 37 - 38) =     13.66180  eV     2   --> G_6   D_6      
     e( 39 - 40) =     15.08391  eV     2   --> G_6   D_6      
     e( 41 - 42) =     15.08483  eV     2   --> G_7   D_7      
     e( 43 - 44) =     15.12725  eV     2   --> G_7   D_7      
     e( 45 - 46) =     15.18947  eV     2   --> G_6   D_6      
     e( 47 - 48) =     15.19285  eV     2   --> G_7   D_7      
     e( 49 - 50) =     17.63567  eV     2   --> G_6   D_6      
     e( 51 - 52) =     17.64968  eV     2   --> G_7   D_7      
     e( 53 - 54) =     18.16049  eV     2   --> G_7   D_7      
     e( 55 - 56) =     18.44849  eV     2   --> G_6   D_6      
     e( 57 - 58) =     19.05502  eV     2   --> G_7   D_7      
     e( 59 - 60) =     19.05549  eV     2   --> G_6   D_6      
     e( 61 - 62) =     19.41142  eV     2   --> G_6   D_6      
     e( 63 - 64) =     19.47027  eV     2   --> G_7   D_7      
     e( 65 - 66) =     19.72258  eV     2   --> G_6   D_6      
     e( 67 - 68) =     19.79195  eV     2   --> G_7   D_7      
     e( 69 - 70) =     20.41464  eV     2   --> G_6   D_6      
     e( 71 - 72) =     20.41589  eV     2   --> G_7   D_7      
     e( 73 - 74) =     21.51693  eV     2   --> G_6   D_6      
     e( 75 - 76) =     25.86866  eV     2   --> G_6   D_6      
     e( 77 - 78) =     25.87309  eV     2   --> G_7   D_7      
     e( 79 - 80) =     27.48766  eV     2   --> G_6   D_6      
     e( 81 - 82) =     27.63040  eV     2   --> G_7   D_7      

 **************************************************************************

 **************************************************************************

                    xk=(   0.00000,   0.02500,   0.00000  )

     Band symmetry, C_4v (4mm)  double point group:

     e(  1 -  2) =    -77.90514  eV     2   --> G_6   D_6      
     e(  3 -  6) =    -77.88980  eV     4   --> G_6   D_6      
     e(  3 -  6) =    -77.88980  eV     4   --> G_7   D_7      
     e(  7 - 10) =    -43.21072  eV     4   --> G_6   D_6      
     e(  7 - 10) =    -43.21072  eV     4   --> G_7   D_7      
     e( 11 - 12) =    -43.15574  eV     2   --> G_6   D_6      
     e( 13 - 14) =    -28.35510  eV     2   --> G_6   D_6      
     e( 15 - 18) =    -28.31810  eV     4   --> G_6   D_6      
     e( 15 - 18) =    -28.31810  eV     4   --> G_7   D_7      
     e( 19 - 20) =    -28.25109  eV     2   --> G_7   D_7      
     e( 21 - 22) =    -28.13714  eV     2   --> G_6   D_6      
     e( 23 - 24) =    -28.13693  eV     2   --> G_7   D_7      
     e( 25 - 26) =      1.56046  eV     2   --> G_7   D_7      
     e( 27 - 28) =      1.56061  eV     2   --> G_6   D_6      
     e( 29 - 30) =      4.06626  eV     2   --> G_7   D_7      
     e( 31 - 32) =      4.06660  eV     2   --> G_6   D_6      
     e( 33 - 34) =      4.10127  eV     2   --> G_7   D_7      
     e( 35 - 36) =      8.31470  eV     2   --> G_6   D_6      
     e( 37 - 38) =     13.66393  eV     2   --> G_6   D_6      
     e( 39 - 40) =     15.08382  eV     2   --> G_6   D_6      
     e( 41 - 42) =     15.08594  eV     2   --> G_7   D_7      
     e( 43 - 44) =     15.12792  eV     2   --> G_7   D_7      
     e( 45 - 46) =     15.18752  eV     2   --> G_6   D_6      
     e( 47 - 48) =     15.19510  eV     2   --> G_7   D_7      
     e( 49 - 50) =     17.61562  eV     2   --> G_6   D_6      
     e( 51 - 52) =     17.64625  eV     2   --> G_7   D_7      
     e( 53 - 54) =     18.15427  eV     2   --> G_7   D_7      
     e( 55 - 56) =     18.46203  eV     2   --> G_6   D_6      
     e( 57 - 58) =     19.05065  eV     2   --> G_7   D_7      
     e( 59 - 60) =     19.05133  eV     2   --> G_6   D_6      
     e( 61 - 62) =     19.35835  eV     2   --> G_6   D_6      
     e( 63 - 64) =     19.47444  eV     2   --> G_7   D_7      
     e( 65 - 66) =     19.75407  eV     2   --> G_6   D_6      
     e( 67 - 68) =     19.79002  eV     2   --> G_7   D_7      
     e( 69 - 70) =     20.42073  eV     2   --> G_6   D_6      
     e( 71 - 72) =     20.42379  eV     2   --> G_7   D_7      
     e( 73 - 74) =     21.53520  eV     2   --> G_6   D_6      
     e( 75 - 76) =     25.86204  eV     2   --> G_6   D_6      
     e( 77 - 78) =     25.87163  eV     2   --> G_7   D_7      
     e( 79 - 80) =     27.50084  eV     2   --> G_6   D_6      
     e( 81 - 82) =     27.62925  eV     2   --> G_7   D_7      

 **************************************************************************

 **************************************************************************

                    xk=(   0.00000,   0.03333,   0.00000  )

     Band symmetry, C_4v (4mm)  double point group:

     e(  1 -  2) =    -77.90513  eV     2   --> G_6   D_6      
     e(  3 -  6) =    -77.88981  eV     4   --> G_6   D_6      
     e(  3 -  6) =    -77.88981  eV     4   --> G_7   D_7      
     e(  7 -  8) =    -43.21072  eV     2   --> G_7   D_7      
     e(  9 - 10) =    -43.21059  eV     2   --> G_6   D_6      
     e( 11 - 12) =    -43.15580  eV     2   --> G_6   D_6      
     e( 13 - 14) =    -28.35492  eV     2   --> G_6   D_6      
     e( 15 - 16) =    -28.31805  eV     2   --> G_6   D_6      
     e( 17 - 18) =    -28.31790  eV     2   --> G_7   D_7      
     e( 19 - 20) =    -28.25112  eV     2   --> G_7   D_7      
     e( 21 - 22) =    -28.13740  eV     2   --> G_6   D_6      
     e( 23 - 24) =    -28.13702  eV     2   --> G_7   D_7      
     e( 25 - 26) =      1.56055  eV     2   --> G_7   D_7      
     e( 27 - 28) =      1.56082  eV     2   --> G_6   D_6      
     e( 29 - 30) =      4.06641  eV     2   --> G_7   D_7      
     e( 31 - 32) =      4.06701  eV     2   --> G_6   D_6      
     e( 33 - 34) =      4.10140  eV     2   --> G_7   D_7      
     e( 35 - 36) =      8.31951  eV     2   --> G_6   D_6      
     e( 37 - 38) =     13.66691  eV     2   --> G_6   D_6      
     e( 39 - 40) =     15.08357  eV     2   --> G_6   D_6      
     e( 41 - 42) =     15.08747  eV     2   --> G_7   D_7      
     e( 43 - 44) =     15.12885  eV     2   --> G_7   D_7      
     e( 45 - 46) =     15.18488  eV     2   --> G_6   D_6      
     e( 47 - 48) =     15.19827  eV     2   --> G_7   D_7      
     e( 49 - 50) =     17.58898  eV     2   --> G_6   D_6      
     e( 51 - 52) =     17.64143  eV     2   --> G_7   D_7      
     e( 53 - 54) =     18.14579  eV     2   --> G_7   D_7      
     e( 55 - 56) =     18.47913  eV     2   --> G_6   D_6      
     e( 57 - 58) =     19.04488  eV     2   --> G_7   D_7      
     e( 59 - 60) =     19.04506  eV     2   --> G_6   D_6      
     e( 61 - 62) =     19.29833  eV     2   --> G_6   D_6      
     e( 63 - 64) =     19.47957  eV     2   --> G_7   D_7      
     e( 65 - 66) =     19.78571  eV     2   --> G_6   D_6      
     e( 67 - 68) =     19.78730  eV     2   --> G_7   D_7      
     e( 69 - 70) =     20.42901  eV     2   --> G_6   D_6      
     e( 71 - 72) =     20.43505  eV     2   --> G_7   D_7      
     e( 73 - 74) =     21.55993  eV     2   --> G_6   D_6      
     e( 75 - 76) =     25.85345  eV     2   --> G_6   D_6      
     e( 77 - 78) =     25.86957  eV     2   --> G_7   D_7      
     e( 79 - 80) =     27.51857  eV     2   --> G_6   D_6      
     e( 81 - 82) =     27.62755  eV     2   --> G_7   D_7      

 **************************************************************************

 **************************************************************************

                    xk=(   0.00000,   0.04167,   0.00000  )

     Band symmetry, C_4v (4mm)  double point group:

     e(  1 -  2) =    -77.90511  eV     2   --> G_6   D_6      
     e(  3 -  6) =    -77.88984  eV     4   --> G_6   D_6      
     e(  3 -  6) =    -77.88984  eV     4   --> G_7   D_7      
     e(  7 -  8) =    -43.21072  eV     2   --> G_7   D_7      
     e(  9 - 10) =    -43.21051  eV     2   --> G_6   D_6      
     e( 11 - 12) =    -43.15588  eV     2   --> G_6   D_6      
     e( 13 - 14) =    -28.35468  eV     2   --> G_6   D_6      
     e( 15 - 16) =    -28.31798  eV     2   --> G_6   D_6      
     e( 17 - 18) =    -28.31775  eV     2   --> G_7   D_7      
     e( 19 - 20) =    -28.25117  eV     2   --> G_7   D_7      
     e( 21 - 22) =    -28.13773  eV     2   --> G_6   D_6      
     e( 23 - 24) =    -28.13715  eV     2   --> G_7   D_7      
     e( 25 - 26) =      1.56067  eV     2   --> G_7   D_7      
     e( 27 - 28) =      1.56108  eV     2   --> G_6   D_6      
     e( 29 - 30) =      4.06661  eV     2   --> G_7   D_7      
     e( 31 - 32) =      4.06754  eV     2   --> G_6   D_6      
     e( 33 - 34) =      4.10157  eV     2   --> G_7   D_7      
     e( 35 - 36) =      8.32568  eV     2   --> G_6   D_6      
     e( 37 - 38) =     13.67071  eV     2   --> G_6   D_6      
     e( 39 - 40) =     15.08303  eV     2   --> G_6   D_6      
     e( 41 - 42) =     15.08941  eV     2   --> G_7   D_7      
     e( 43 - 44) =     15.13004  eV     2   --> G_7   D_7      
     e( 45 - 46) =     15.18165  eV     2   --> G_6   D_6      
     e( 47 - 48) =     15.20237  eV     2   --> G_7   D_7      
     e( 49 - 50) =     17.55682  eV     2   --> G_6   D_6      
     e( 51 - 52) =     17.63521  eV     2   --> G_7   D_7      
     e( 53 - 54) =     18.13525  eV     2   --> G_7   D_7      
     e( 55 - 56) =     18.49823  eV     2   --> G_6   D_6      
     e( 57 - 58) =     19.03593  eV     2   --> G_6   D_6      
     e( 59 - 60) =     19.03796  eV     2   --> G_7   D_7      
     e( 61 - 62) =     19.23551  eV     2   --> G_6   D_6      
     e( 63 - 64) =     19.48507  eV     2   --> G_7   D_7      
     e( 65 - 66) =     19.78378  eV     2   --> G_7   D_7      
     e( 67 - 68) =     19.81543  eV     2   --> G_6   D_6      
     e( 69 - 70) =     20.43933  eV     2   --> G_6   D_6      
     e( 71 - 72) =     20.44987  eV     2   --> G_7   D_7      
     e( 73 - 74) =     21.59034  eV     2   --> G_6   D_6      
     e( 75 - 76) =     25.84352  eV     2   --> G_6   D_6      
     e( 77 - 78) =     25.86694  eV     2   --> G_7   D_7      
     e( 79 - 80) =     27.54019  eV     2   --> G_6   D_6      
     e( 81 - 82) =     27.62524  eV     2   --> G_7   D_7      

 **************************************************************************

 **************************************************************************

                    xk=(   0.00000,   0.05000,   0.00000  )

     Band symmetry, C_4v (4mm)  double point group:

     e(  1 -  2) =    -77.90508  eV     2   --> G_6   D_6      
     e(  3 -  6) =    -77.88986  eV     4   --> G_6   D_6      
     e(  3 -  6) =    -77.88986  eV     4   --> G_7   D_7      
     e(  7 -  8) =    -43.21072  eV     2   --> G_7   D_7      
     e(  9 - 10) =    -43.21042  eV     2   --> G_6   D_6      
     e( 11 - 12) =    -43.15597  eV     2   --> G_6   D_6      
     e( 13 - 14) =    -28.35440  eV     2   --> G_6   D_6      
     e( 15 - 16) =    -28.31790  eV     2   --> G_6   D_6      
     e( 17 - 18) =    -28.31756  eV     2   --> G_7   D_7      
     e( 19 - 20) =    -28.25122  eV     2   --> G_7   D_7      
     e( 21 - 22) =    -28.13814  eV     2   --> G_6   D_6      
     e( 23 - 24) =    -28.13730  eV     2   --> G_7   D_7      
     e( 25 - 26) =      1.56081  eV     2   --> G_7   D_7      
     e( 27 - 28) =      1.56140  eV     2   --> G_6   D_6      
     e( 29 - 30) =      4.06685  eV     2   --> G_7   D_7      
     e( 31 - 32) =      4.06819  eV     2   --> G_6   D_6      
     e( 33 - 34) =      4.10178  eV     2   --> G_7   D_7      
     e( 35 - 36) =      8.33323  eV     2   --> G_6   D_6      
     e( 37 - 38) =     13.67531  eV     2   --> G_6   D_6      
     e( 39 - 40) =     15.08200  eV     2   --> G_6   D_6      
     e( 41 - 42) =     15.09172  eV     2   --> G_7   D_7      
     e( 43 - 44) =     15.13147  eV     2   --> G_7   D_7      
     e( 45 - 46) =     15.17800  eV     2   --> G_6   D_6      
     e( 47 - 48) =     15.20742  eV     2   --> G_7   D_7      
     e( 49 - 50) =     17.52019  eV     2   --> G_6   D_6      
     e( 51 - 52) =     17.62756  eV     2   --> G_7   D_7      
     e( 53 - 54) =     18.12290  eV     2   --> G_7   D_7      
     e( 55 - 56) =     18.51751  eV     2   --> G_6   D_6      
     e( 57 - 58) =     19.02215  eV     2   --> G_6   D_6      
     e( 59 - 60) =     19.03015  eV     2   --> G_7   D_7      
     e( 61 - 62) =     19.17407  eV     2   --> G_6   D_6      
     e( 63 - 64) =     19.49031  eV     2   --> G_7   D_7      
     e( 65 - 66) =     19.77943  eV     2   --> G_7   D_7      
     e( 67 - 68) =     19.84259  eV     2   --> G_6   D_6      
     e( 69 - 70) =     20.45151  eV     2   --> G_6   D_6      
     e( 71 - 72) =     20.46843  eV     2   --> G_7   D_7      
     e( 73 - 74) =     21.62549  eV     2   --> G_6   D_6      
     e( 75 - 76) =     25.83300  eV     2   --> G_6   D_6      
     e( 77 - 78) =     25.86374  eV     2   --> G_7   D_7      
     e( 79 - 80) =     27.56499  eV     2   --> G_6   D_6      
     e( 81 - 82) =     27.62221  eV     2   --> G_7   D_7      

 **************************************************************************

 **************************************************************************

                    xk=(   0.00000,   0.05833,   0.00000  )

     Band symmetry, C_4v (4mm)  double point group:

     e(  1 -  2) =    -77.90505  eV     2   --> G_6   D_6      
     e(  3 -  4) =    -77.88989  eV     2   --> G_6   D_6      
     e(  5 -  6) =    -77.88978  eV     2   --> G_7   D_7      
     e(  7 -  8) =    -43.21072  eV     2   --> G_7   D_7      
     e(  9 - 10) =    -43.21031  eV     2   --> G_6   D_6      
     e( 11 - 12) =    -43.15608  eV     2   --> G_6   D_6      
     e( 13 - 14) =    -28.35407  eV     2   --> G_6   D_6      
     e( 15 - 16) =    -28.31779  eV     2   --> G_6   D_6      
     e( 17 - 18) =    -28.31735  eV     2   --> G_7   D_7      
     e( 19 - 20) =    -28.25128  eV     2   --> G_7   D_7      
     e( 21 - 22) =    -28.13862  eV     2   --> G_6   D_6      
     e( 23 - 24) =    -28.13747  eV     2   --> G_7   D_7      
     e( 25 - 26) =      1.56097  eV     2   --> G_7   D_7      
     e( 27 - 28) =      1.56178  eV     2   --> G_6   D_6      
     e( 29 - 30) =      4.06713  eV     2   --> G_7   D_7      
     e( 31 - 32) =      4.06895  eV     2   --> G_6   D_6      
     e( 33 - 34) =      4.10202  eV     2   --> G_7   D_7      
     e( 35 - 36) =      8.34213  eV     2   --> G_6   D_6      
     e( 37 - 38) =     13.68071  eV     2   --> G_6   D_6      
     e( 39 - 40) =     15.08022  eV     2   --> G_6   D_6      
     e( 41 - 42) =     15.09439  eV     2   --> G_7   D_7      
     e( 43 - 44) =     15.13315  eV     2   --> G_7   D_7      
     e( 45 - 46) =     15.17415  eV     2   --> G_6   D_6      
     e( 47 - 48) =     15.21344  eV     2   --> G_7   D_7      
     e( 49 - 50) =     17.48000  eV     2   --> G_6   D_6      
     e( 51 - 52) =     17.61849  eV     2   --> G_7   D_7      
     e( 53 - 54) =     18.10901  eV     2   --> G_7   D_7      
     e( 55 - 56) =     18.53482  eV     2   --> G_6   D_6      
     e( 57 - 58) =     18.99994  eV     2   --> G_6   D_6      
     e( 59 - 60) =     19.02167  eV     2   --> G_7   D_7      
     e( 61 - 62) =     19.12007  eV     2   --> G_6   D_6      
     e( 63 - 64) =     19.49471  eV     2   --> G_7   D_7      
     e( 65 - 66) =     19.77421  eV     2   --> G_7   D_7      
     e( 67 - 68) =     19.86714  eV     2   --> G_6   D_6      
     e( 69 - 70) =     20.46548  eV     2   --> G_6   D_6      
     e( 71 - 72) =     20.49092  eV     2   --> G_7   D_7      
     e( 73 - 74) =     21.66433  eV     2   --> G_6   D_6      
     e( 75 - 76) =     25.82268  eV     2   --> G_6   D_6      
     e( 77 - 78) =     25.85997  eV     2   --> G_7   D_7      
     e( 79 - 80) =     27.59224  eV     2   --> G_6   D_6      
     e( 81 - 82) =     27.61836  eV     2   --> G_7   D_7      

 **************************************************************************

 **************************************************************************

                    xk=(   0.00000,   0.06667,   0.00000  )

     Band symmetry, C_4v (4mm)  double point group:

     e(  1 -  2) =    -77.90502  eV     2   --> G_6   D_6      
     e(  3 -  4) =    -77.88993  eV     2   --> G_6   D_6      
     e(  5 -  6) =    -77.88978  eV     2   --> G_7   D_7      
     e(  7 -  8) =    -43.21072  eV     2   --> G_7   D_7      
     e(  9 - 10) =    -43.21019  eV     2   --> G_6   D_6      
     e( 11 - 12) =    -43.15621  eV     2   --> G_6   D_6      
     e( 13 - 14) =    -28.35369  eV     2   --> G_6   D_6      
     e( 15 - 16) =    -28.31768  eV     2   --> G_6   D_6      
     e( 17 - 18) =    -28.31710  eV     2   --> G_7   D_7      
     e( 19 - 20) =    -28.25135  eV     2   --> G_7   D_7      
     e( 21 - 22) =    -28.13917  eV     2   --> G_6   D_6      
     e( 23 - 24) =    -28.13768  eV     2   --> G_7   D_7      
     e( 25 - 26) =      1.56116  eV     2   --> G_7   D_7      
     e( 27 - 28) =      1.56221  eV     2   --> G_6   D_6      
     e( 29 - 30) =      4.06745  eV     2   --> G_7   D_7      
     e( 31 - 32) =      4.06982  eV     2   --> G_6   D_6      
     e( 33 - 34) =      4.10230  eV     2   --> G_7   D_7      
     e( 35 - 36) =      8.35240  eV     2   --> G_6   D_6      
     e( 37 - 38) =     13.68686  eV     2   --> G_6   D_6      
     e( 39 - 40) =     15.07735  eV     2   --> G_6   D_6      
     e( 41 - 42) =     15.09738  eV     2   --> G_7   D_7      
     e( 43 - 44) =     15.13507  eV     2   --> G_7   D_7      
     e( 45 - 46) =     15.17039  eV     2   --> G_6   D_6      
     e( 47 - 48) =     15.22046  eV     2   --> G_7   D_7      
     e( 49 - 50) =     17.43705  eV     2   --> G_6   D_6      
     e( 51 - 52) =     17.60797  eV     2   --> G_7   D_7      
     e( 53 - 54) =     18.09387  eV     2   --> G_7   D_7      
     e( 55 - 56) =     18.54735  eV     2   --> G_6   D_6      
     e( 57 - 58) =     18.96506  eV     2   --> G_6   D_6      
     e( 59 - 60) =     19.01269  eV     2   --> G_7   D_7      
     e( 61 - 62) =     19.08049  eV     2   --> G_6   D_6      
     e( 63 - 64) =     19.49777  eV     2   --> G_7   D_7      
     e( 65 - 66) =     19.76808  eV     2   --> G_7   D_7      
     e( 67 - 68) =     19.88932  eV     2   --> G_6   D_6      
     e( 69 - 70) =     20.48118  eV     2   --> G_6   D_6      
     e( 71 - 72) =     20.51751  eV     2   --> G_7   D_7      
     e( 73 - 74) =     21.70573  eV     2   --> G_6   D_6      
     e( 75 - 76) =     25.81338  eV     2   --> G_6   D_6      
     e( 77 - 78) =     25.85564  eV     2   --> G_7   D_7      
     e( 79 - 80) =     27.61356  eV     2   --> G_7   D_7      
     e( 81 - 82) =     27.62133  eV     2   --> G_6   D_6      

 **************************************************************************

 **************************************************************************

                    xk=(   0.00000,   0.07500,   0.00000  )

     Band symmetry, C_4v (4mm)  double point group:

     e(  1 -  2) =    -77.90498  eV     2   --> G_6   D_6      
     e(  3 -  4) =    -77.88997  eV     2   --> G_6   D_6      
     e(  5 -  6) =    -77.88978  eV     2   --> G_7   D_7      
     e(  7 -  8) =    -43.21072  eV     2   --> G_7   D_7      
     e(  9 - 10) =    -43.21005  eV     2   --> G_6   D_6      
     e( 11 - 12) =    -43.15635  eV     2   --> G_6   D_6      
     e( 13 - 14) =    -28.35326  eV     2   --> G_6   D_6      
     e( 15 - 16) =    -28.31754  eV     2   --> G_6   D_6      
     e( 17 - 18) =    -28.31681  eV     2   --> G_7   D_7      
     e( 19 - 20) =    -28.25143  eV     2   --> G_7   D_7      
     e( 21 - 22) =    -28.13980  eV     2   --> G_6   D_6      
     e( 23 - 24) =    -28.13790  eV     2   --> G_7   D_7      
     e( 25 - 26) =      1.56137  eV     2   --> G_7   D_7      
     e( 27 - 28) =      1.56270  eV     2   --> G_6   D_6      
     e( 29 - 30) =      4.06781  eV     2   --> G_7   D_7      
     e( 31 - 32) =      4.07080  eV     2   --> G_6   D_6      
     e( 33 - 34) =      4.10262  eV     2   --> G_7   D_7      
     e( 35 - 36) =      8.36402  eV     2   --> G_6   D_6      
     e( 37 - 38) =     13.69373  eV     2   --> G_6   D_6      
     e( 39 - 40) =     15.07298  eV     2   --> G_6   D_6      
     e( 41 - 42) =     15.10067  eV     2   --> G_7   D_7      
     e( 43 - 44) =     15.13721  eV     2   --> G_7   D_7      
     e( 45 - 46) =     15.16707  eV     2   --> G_6   D_6      
     e( 47 - 48) =     15.22847  eV     2   --> G_7   D_7      
     e( 49 - 50) =     17.39201  eV     2   --> G_6   D_6      
     e( 51 - 52) =     17.59601  eV     2   --> G_7   D_7      
     e( 53 - 54) =     18.07778  eV     2   --> G_7   D_7      
     e( 55 - 56) =     18.55131  eV     2   --> G_6   D_6      
     e( 57 - 58) =     18.92152  eV     2   --> G_6   D_6      
     e( 59 - 60) =     19.00334  eV     2   --> G_7   D_7      
     e( 61 - 62) =     19.05506  eV     2   --> G_6   D_6      
     e( 63 - 64) =     19.49908  eV     2   --> G_7   D_7      
     e( 65 - 66) =     19.76098  eV     2   --> G_7   D_7      
     e( 67 - 68) =     19.90944  eV     2   --> G_6   D_6      
     e( 69 - 70) =     20.49867  eV     2   --> G_6   D_6      
     e( 71 - 72) =     20.54830  eV     2   --> G_7   D_7      
     e( 73 - 74) =     21.74857  eV     2   --> G_6   D_6      
     e( 75 - 76) =     25.80596  eV     2   --> G_6   D_6      
     e( 77 - 78) =     25.85076  eV     2   --> G_7   D_7      
     e( 79 - 80) =     27.60768  eV     2   --> G_7   D_7      
     e( 81 - 82) =     27.65176  eV     2   --> G_6   D_6      

 **************************************************************************

 **************************************************************************

                    xk=(   0.00000,   0.08333,   0.00000  )

     Band symmetry, C_4v (4mm)  double point group:

     e(  1 -  2) =    -77.90493  eV     2   --> G_6   D_6      
     e(  3 -  4) =    -77.89001  eV     2   --> G_6   D_6      
     e(  5 -  6) =    -77.88978  eV     2   --> G_7   D_7      
     e(  7 -  8) =    -43.21073  eV     2   --> G_7   D_7      
     e(  9 - 10) =    -43.20989  eV     2   --> G_6   D_6      
     e( 11 - 12) =    -43.15651  eV     2   --> G_6   D_6      
     e( 13 - 14) =    -28.35279  eV     2   --> G_6   D_6      
     e( 15 - 16) =    -28.31738  eV     2   --> G_6   D_6      
     e( 17 - 18) =    -28.31650  eV     2   --> G_7   D_7      
     e( 19 - 20) =    -28.25153  eV     2   --> G_7   D_7      
     e( 21 - 22) =    -28.14049  eV     2   --> G_6   D_6      
     e( 23 - 24) =    -28.13816  eV     2   --> G_7   D_7      
     e( 25 - 26) =      1.56161  eV     2   --> G_7   D_7      
     e( 27 - 28) =      1.56324  eV     2   --> G_6   D_6      
     e( 29 - 30) =      4.06821  eV     2   --> G_7   D_7      
     e( 31 - 32) =      4.07188  eV     2   --> G_6   D_6      
     e( 33 - 34) =      4.10297  eV     2   --> G_7   D_7      
     e( 35 - 36) =      8.37699  eV     2   --> G_6   D_6      
     e( 37 - 38) =     13.70129  eV     2   --> G_6   D_6      
     e( 39 - 40) =     15.06672  eV     2   --> G_6   D_6      
     e( 41 - 42) =     15.10423  eV     2   --> G_7   D_7      
     e( 43 - 44) =     15.13958  eV     2   --> G_7   D_7      
     e( 45 - 46) =     15.16452  eV     2   --> G_6   D_6      
     e( 47 - 48) =     15.23751  eV     2   --> G_7   D_7      
     e( 49 - 50) =     17.34543  eV     2   --> G_6   D_6      
     e( 51 - 52) =     17.58262  eV     2   --> G_7   D_7      
     e( 53 - 54) =     18.06101  eV     2   --> G_7   D_7      
     e( 55 - 56) =     18.54191  eV     2   --> G_6   D_6      
     e( 57 - 58) =     18.88052  eV     2   --> G_6   D_6      
     e( 59 - 60) =     18.99370  eV     2   --> G_7   D_7      
     e( 61 - 62) =     19.03729  eV     2   --> G_6   D_6      
     e( 63 - 64) =     19.49834  eV     2   --> G_7   D_7      
     e( 65 - 66) =     19.75285  eV     2   --> G_7   D_7      
     e( 67 - 68) =     19.92784  eV     2   --> G_6   D_6      
     e( 69 - 70) =     20.51805  eV     2   --> G_6   D_6      
     e( 71 - 72) =     20.58332  eV     2   --> G_7   D_7      
     e( 73 - 74) =     21.79172  eV     2   --> G_6   D_6      
     e( 75 - 76) =     25.80121  eV     2   --> G_6   D_6      
     e( 77 - 78) =     25.84534  eV     2   --> G_7   D_7      
     e( 79 - 80) =     27.60058  eV     2   --> G_7   D_7      
     e( 81 - 82) =     27.68316  eV     2   --> G_6   D_6      

 **************************************************************************

 **************************************************************************

                    xk=(   0.00000,   0.09167,   0.00000  )

     Band symmetry, C_4v (4mm)  double point group:

     e(  1 -  2) =    -77.90488  eV     2   --> G_6   D_6      
     e(  3 -  4) =    -77.89006  eV     2   --> G_6   D_6      
     e(  5 -  6) =    -77.88978  eV     2   --> G_7   D_7      
     e(  7 -  8) =    -43.21073  eV     2   --> G_7   D_7      
     e(  9 - 10) =    -43.20972  eV     2   --> G_6   D_6      
     e( 11 - 12) =    -43.15669  eV     2   --> G_6   D_6      
     e( 13 - 14) =    -28.35228  eV     2   --> G_6   D_6      
     e( 15 - 16) =    -28.31720  eV     2   --> G_6   D_6      
     e( 17 - 18) =    -28.31615  eV     2   --> G_7   D_7      
     e( 19 - 20) =    -28.25163  eV     2   --> G_7   D_7      
     e( 21 - 22) =    -28.14126  eV     2   --> G_6   D_6      
     e( 23 - 24) =    -28.13843  eV     2   --> G_7   D_7      
     e( 25 - 26) =      1.56187  eV     2   --> G_7   D_7      
     e( 27 - 28) =      1.56383  eV     2   --> G_6   D_6      
     e( 29 - 30) =      4.06865  eV     2   --> G_7   D_7      
     e( 31 - 32) =      4.07307  eV     2   --> G_6   D_6      
     e( 33 - 34) =      4.10335  eV     2   --> G_7   D_7      
     e( 35 - 36) =      8.39130  eV     2   --> G_6   D_6      
     e( 37 - 38) =     13.70948  eV     2   --> G_6   D_6      
     e( 39 - 40) =     15.05825  eV     2   --> G_6   D_6      
     e( 41 - 42) =     15.10804  eV     2   --> G_7   D_7      
     e( 43 - 44) =     15.14216  eV     2   --> G_7   D_7      
     e( 45 - 46) =     15.16300  eV     2   --> G_6   D_6      
     e( 47 - 48) =     15.24758  eV     2   --> G_7   D_7      
     e( 49 - 50) =     17.29777  eV     2   --> G_6   D_6      
     e( 51 - 52) =     17.56783  eV     2   --> G_7   D_7      
     e( 53 - 54) =     18.04383  eV     2   --> G_7   D_7      
     e( 55 - 56) =     18.51521  eV     2   --> G_6   D_6      
     e( 57 - 58) =     18.85040  eV     2   --> G_6   D_6      
     e( 59 - 60) =     18.98381  eV     2   --> G_7   D_7      
     e( 61 - 62) =     19.02276  eV     2   --> G_6   D_6      
     e( 63 - 64) =     19.49537  eV     2   --> G_7   D_7      
     e( 65 - 66) =     19.74365  eV     2   --> G_7   D_7      
     e( 67 - 68) =     19.94483  eV     2   --> G_6   D_6      
     e( 69 - 70) =     20.53950  eV     2   --> G_6   D_6      
     e( 71 - 72) =     20.62256  eV     2   --> G_7   D_7      
     e( 73 - 74) =     21.83410  eV     2   --> G_6   D_6      
     e( 75 - 76) =     25.79991  eV     2   --> G_6   D_6      
     e( 77 - 78) =     25.83940  eV     2   --> G_7   D_7      
     e( 79 - 80) =     27.59212  eV     2   --> G_7   D_7      
     e( 81 - 82) =     27.71525  eV     2   --> G_6   D_6      

 **************************************************************************

 **************************************************************************

                    xk=(   0.00000,   0.10000,   0.00000  )

     Band symmetry, C_4v (4mm)  double point group:

     e(  1 -  2) =    -77.90483  eV     2   --> G_6   D_6      
     e(  3 -  4) =    -77.89011  eV     2   --> G_6   D_6      
     e(  5 -  6) =    -77.88978  eV     2   --> G_7   D_7      
     e(  7 -  8) =    -43.21073  eV     2   --> G_7   D_7      
     e(  9 - 10) =    -43.20953  eV     2   --> G_6   D_6      
     e( 11 - 12) =    -43.15688  eV     2   --> G_6   D_6      
     e( 13 - 14) =    -28.35172  eV     2   --> G_6   D_6      
     e( 15 - 16) =    -28.31699  eV     2   --> G_6   D_6      
     e( 17 - 18) =    -28.31578  eV     2   --> G_7   D_7      
     e( 19 - 20) =    -28.25174  eV     2   --> G_7   D_7      
     e( 21 - 22) =    -28.14210  eV     2   --> G_6   D_6      
     e( 23 - 24) =    -28.13874  eV     2   --> G_7   D_7      
     e( 25 - 26) =      1.56215  eV     2   --> G_7   D_7      
     e( 27 - 28) =      1.56447  eV     2   --> G_6   D_6      
     e( 29 - 30) =      4.06913  eV     2   --> G_7   D_7      
     e( 31 - 32) =      4.07436  eV     2   --> G_6   D_6      
     e( 33 - 34) =      4.10376  eV     2   --> G_7   D_7      
     e( 35 - 36) =      8.40695  eV     2   --> G_6   D_6      
     e( 37 - 38) =     13.71824  eV     2   --> G_6   D_6      
     e( 39 - 40) =     15.04739  eV     2   --> G_6   D_6      
     e( 41 - 42) =     15.11206  eV     2   --> G_7   D_7      
     e( 43 - 44) =     15.14496  eV     2   --> G_7   D_7      
     e( 45 - 46) =     15.16263  eV     2   --> G_6   D_6      
     e( 47 - 48) =     15.25867  eV     2   --> G_7   D_7      
     e( 49 - 50) =     17.24942  eV     2   --> G_6   D_6      
     e( 51 - 52) =     17.55169  eV     2   --> G_7   D_7      
     e( 53 - 54) =     18.02645  eV     2   --> G_7   D_7      
     e( 55 - 56) =     18.47118  eV     2   --> G_6   D_6      
     e( 57 - 58) =     18.83299  eV     2   --> G_6   D_6      
     e( 59 - 60) =     18.97369  eV     2   --> G_7   D_7      
     e( 61 - 62) =     19.00968  eV     2   --> G_6   D_6      
     e( 63 - 64) =     19.49011  eV     2   --> G_7   D_7      
     e( 65 - 66) =     19.73333  eV     2   --> G_7   D_7      
     e( 67 - 68) =     19.96063  eV     2   --> G_6   D_6      
     e( 69 - 70) =     20.56324  eV     2   --> G_6   D_6      
     e( 71 - 72) =     20.66592  eV     2   --> G_7   D_7      
     e( 73 - 74) =     21.87473  eV     2   --> G_6   D_6      
     e( 75 - 76) =     25.80275  eV     2   --> G_6   D_6      
     e( 77 - 78) =     25.83294  eV     2   --> G_7   D_7      
     e( 79 - 80) =     27.58216  eV     2   --> G_7   D_7      
     e( 81 - 82) =     27.74778  eV     2   --> G_6   D_6      

 **************************************************************************

 **************************************************************************

                    xk=(   0.00000,   0.10833,   0.00000  )

     Band symmetry, C_4v (4mm)  double point group:

     e(  1 -  2) =    -77.90477  eV     2   --> G_6   D_6      
     e(  3 -  4) =    -77.89017  eV     2   --> G_6   D_6      
     e(  5 -  6) =    -77.88978  eV     2   --> G_7   D_7      
     e(  7 -  8) =    -43.21073  eV     2   --> G_7   D_7      
     e(  9 - 10) =    -43.20933  eV     2   --> G_6   D_6      
     e( 11 - 12) =    -43.15708  eV     2   --> G_6   D_6      
     e( 13 - 14) =    -28.35113  eV     2   --> G_6   D_6      
     e( 15 - 16) =    -28.31676  eV     2   --> G_6   D_6      
     e( 17 - 18) =    -28.31537  eV     2   --> G_7   D_7      
     e( 19 - 20) =    -28.25186  eV     2   --> G_7   D_7      
     e( 21 - 22) =    -28.14301  eV     2   --> G_6   D_6      
     e( 23 - 24) =    -28.13906  eV     2   --> G_7   D_7      
     e( 25 - 26) =      1.56245  eV     2   --> G_7   D_7      
     e( 27 - 28) =      1.56515  eV     2   --> G_6   D_6      
     e( 29 - 30) =      4.06964  eV     2   --> G_7   D_7      
     e( 31 - 32) =      4.07574  eV     2   --> G_6   D_6      
     e( 33 - 34) =      4.10421  eV     2   --> G_7   D_7      
     e( 35 - 36) =      8.42392  eV     2   --> G_6   D_6      
     e( 37 - 38) =     13.72752  eV     2   --> G_6   D_6      
     e( 39 - 40) =     15.03409  eV     2   --> G_6   D_6      
     e( 41 - 42) =     15.11629  eV     2   --> G_7   D_7      
     e( 43 - 44) =     15.14795  eV     2   --> G_7   D_7      
     e( 45 - 46) =     15.16339  eV     2   --> G_6   D_6      
     e( 47 - 48) =     15.27080  eV     2   --> G_7   D_7      
     e( 49 - 50) =     17.20071  eV     2   --> G_6   D_6      
     e( 51 - 52) =     17.53426  eV     2   --> G_7   D_7      
     e( 53 - 54) =     18.00909  eV     2   --> G_7   D_7      
     e( 55 - 56) =     18.41391  eV     2   --> G_6   D_6      
     e( 57 - 58) =     18.82489  eV     2   --> G_6   D_6      
     e( 59 - 60) =     18.96332  eV     2   --> G_7   D_7      
     e( 61 - 62) =     18.99739  eV     2   --> G_6   D_6      
     e( 63 - 64) =     19.48256  eV     2   --> G_7   D_7      
     e( 65 - 66) =     19.72188  eV     2   --> G_7   D_7      
     e( 67 - 68) =     19.97544  eV     2   --> G_6   D_6      
     e( 69 - 70) =     20.58950  eV     2   --> G_6   D_6      
     e( 71 - 72) =     20.71325  eV     2   --> G_7   D_7      
     e( 73 - 74) =     21.91269  eV     2   --> G_6   D_6      
     e( 75 - 76) =     25.81036  eV     2   --> G_6   D_6      
     e( 77 - 78) =     25.82598  eV     2   --> G_7   D_7      
     e( 79 - 80) =     27.57056  eV     2   --> G_7   D_7      
     e( 81 - 82) =     27.78042  eV     2   --> G_6   D_6      

 **************************************************************************

 **************************************************************************

                    xk=(   0.00000,   0.11667,   0.00000  )

     Band symmetry, C_4v (4mm)  double point group:

     e(  1 -  2) =    -77.90471  eV     2   --> G_6   D_6      
     e(  3 -  4) =    -77.89023  eV     2   --> G_6   D_6      
     e(  5 -  6) =    -77.88978  eV     2   --> G_7   D_7      
     e(  7 -  8) =    -43.21073  eV     2   --> G_7   D_7      
     e(  9 - 10) =    -43.20911  eV     2   --> G_6   D_6      
     e( 11 - 12) =    -43.15731  eV     2   --> G_6   D_6      
     e( 13 - 14) =    -28.35050  eV     2   --> G_6   D_6      
     e( 15 - 16) =    -28.31650  eV     2   --> G_6   D_6      
     e( 17 - 18) =    -28.31493  eV     2   --> G_7   D_7      
     e( 19 - 20) =    -28.25199  eV     2   --> G_7   D_7      
     e( 21 - 22) =    -28.14398  eV     2   --> G_6   D_6      
     e( 23 - 24) =    -28.13941  eV     2   --> G_7   D_7      
     e( 25 - 26) =      1.56277  eV     2   --> G_7   D_7      
     e( 27 - 28) =      1.56589  eV     2   --> G_6   D_6      
     e( 29 - 30) =      4.07018  eV     2   --> G_7   D_7      
     e( 31 - 32) =      4.07722  eV     2   --> G_6   D_6      
     e( 33 - 34) =      4.10469  eV     2   --> G_7   D_7      
     e( 35 - 36) =      8.44221  eV     2   --> G_6   D_6      
     e( 37 - 38) =     13.73722  eV     2   --> G_6   D_6      
     e( 39 - 40) =     15.01840  eV     2   --> G_6   D_6      
     e( 41 - 42) =     15.12068  eV     2   --> G_7   D_7      
     e( 43 - 44) =     15.15114  eV     2   --> G_7   D_7      
     e( 45 - 46) =     15.16519  eV     2   --> G_6   D_6      
     e( 47 - 48) =     15.28396  eV     2   --> G_7   D_7      
     e( 49 - 50) =     17.15194  eV     2   --> G_6   D_6      
     e( 51 - 52) =     17.51563  eV     2   --> G_7   D_7      
     e( 53 - 54) =     17.99190  eV     2   --> G_7   D_7      
     e( 55 - 56) =     18.34837  eV     2   --> G_6   D_6      
     e( 57 - 58) =     18.82137  eV     2   --> G_6   D_6      
     e( 59 - 60) =     18.95267  eV     2   --> G_7   D_7      
     e( 61 - 62) =     18.98575  eV     2   --> G_6   D_6      
     e( 63 - 64) =     19.47276  eV     2   --> G_7   D_7      
     e( 65 - 66) =     19.70929  eV     2   --> G_7   D_7      
     e( 67 - 68) =     19.98937  eV     2   --> G_6   D_6      
     e( 69 - 70) =     20.61852  eV     2   --> G_6   D_6      
     e( 71 - 72) =     20.76437  eV     2   --> G_7   D_7      
     e( 73 - 74) =     21.94721  eV     2   --> G_6   D_6      
     e( 75 - 76) =     25.81853  eV     2   --> G_7   D_7      
     e( 77 - 78) =     25.82326  eV     2   --> G_6   D_6      
     e( 79 - 80) =     27.55720  eV     2   --> G_7   D_7      
     e( 81 - 82) =     27.81281  eV     2   --> G_6   D_6      

 **************************************************************************

 **************************************************************************

                    xk=(   0.00000,   0.12500,   0.00000  )

     Band symmetry, C_4v (4mm)  double point group:

     e(  1 -  2) =    -77.90465  eV     2   --> G_6   D_6      
     e(  3 -  4) =    -77.89029  eV     2   --> G_6   D_6      
     e(  5 -  6) =    -77.88978  eV     2   --> G_7   D_7      
     e(  7 -  8) =    -43.21073  eV     2   --> G_7   D_7      
     e(  9 - 10) =    -43.20888  eV     2   --> G_6   D_6      
     e( 11 - 12) =    -43.15755  eV     2   --> G_6   D_6      
     e( 13 - 14) =    -28.34984  eV     2   --> G_6   D_6      
     e( 15 - 16) =    -28.31622  eV     2   --> G_6   D_6      
     e( 17 - 18) =    -28.31446  eV     2   --> G_7   D_7      
     e( 19 - 20) =    -28.25214  eV     2   --> G_7   D_7      
     e( 21 - 22) =    -28.14503  eV     2   --> G_6   D_6      
     e( 23 - 24) =    -28.13978  eV     2   --> G_7   D_7      
     e( 25 - 26) =      1.56311  eV     2   --> G_7   D_7      
     e( 27 - 28) =      1.56666  eV     2   --> G_6   D_6      
     e( 29 - 30) =      4.07076  eV     2   --> G_7   D_7      
     e( 31 - 32) =      4.07878  eV     2   --> G_6   D_6      
     e( 33 - 34) =      4.10519  eV     2   --> G_7   D_7      
     e( 35 - 36) =      8.46181  eV     2   --> G_6   D_6      
     e( 37 - 38) =     13.74725  eV     2   --> G_6   D_6      
     e( 39 - 40) =     15.00044  eV     2   --> G_6   D_6      
     e( 41 - 42) =     15.12523  eV     2   --> G_7   D_7      
     e( 43 - 44) =     15.15452  eV     2   --> G_7   D_7      
     e( 45 - 46) =     15.16787  eV     2   --> G_6   D_6      
     e( 47 - 48) =     15.29813  eV     2   --> G_7   D_7      
     e( 49 - 50) =     17.10336  eV     2   --> G_6   D_6      
     e( 51 - 52) =     17.49593  eV     2   --> G_7   D_7      
     e( 53 - 54) =     17.97501  eV     2   --> G_7   D_7      
     e( 55 - 56) =     18.27830  eV     2   --> G_6   D_6      
     e( 57 - 58) =     18.81879  eV     2   --> G_6   D_6      
     e( 59 - 60) =     18.94171  eV     2   --> G_7   D_7      
     e( 61 - 62) =     18.97478  eV     2   --> G_6   D_6      
     e( 63 - 64) =     19.46081  eV     2   --> G_7   D_7      
     e( 65 - 66) =     19.69561  eV     2   --> G_7   D_7      
     e( 67 - 68) =     20.00248  eV     2   --> G_6   D_6      
     e( 69 - 70) =     20.65053  eV     2   --> G_6   D_6      
     e( 71 - 72) =     20.81905  eV     2   --> G_7   D_7      
     e( 73 - 74) =     21.97762  eV     2   --> G_6   D_6      
     e( 75 - 76) =     25.81062  eV     2   --> G_7   D_7      
     e( 77 - 78) =     25.84185  eV     2   --> G_6   D_6      
     e( 79 - 80) =     27.54197  eV     2   --> G_7   D_7      
     e( 81 - 82) =     27.84444  eV     2   --> G_6   D_6      

 **************************************************************************

 **************************************************************************

                    xk=(   0.00000,   0.13333,   0.00000  )

     Band symmetry, C_4v (4mm)  double point group:

     e(  1 -  2) =    -77.90458  eV     2   --> G_6   D_6      
     e(  3 -  4) =    -77.89036  eV     2   --> G_6   D_6      
     e(  5 -  6) =    -77.88978  eV     2   --> G_7   D_7      
     e(  7 -  8) =    -43.21074  eV     2   --> G_7   D_7      
     e(  9 - 10) =    -43.20863  eV     2   --> G_6   D_6      
     e( 11 - 12) =    -43.15780  eV     2   --> G_6   D_6      
     e( 13 - 14) =    -28.34915  eV     2   --> G_6   D_6      
     e( 15 - 16) =    -28.31590  eV     2   --> G_6   D_6      
     e( 17 - 18) =    -28.31396  eV     2   --> G_7   D_7      
     e( 19 - 20) =    -28.25229  eV     2   --> G_7   D_7      
     e( 21 - 22) =    -28.14614  eV     2   --> G_6   D_6      
     e( 23 - 24) =    -28.14017  eV     2   --> G_7   D_7      
     e( 25 - 26) =      1.56347  eV     2   --> G_7   D_7      
     e( 27 - 28) =      1.56748  eV     2   --> G_6   D_6      
     e( 29 - 30) =      4.07137  eV     2   --> G_7   D_7      
     e( 31 - 32) =      4.08043  eV     2   --> G_6   D_6      
     e( 33 - 34) =      4.10573  eV     2   --> G_7   D_7      
     e( 35 - 36) =      8.48271  eV     2   --> G_6   D_6      
     e( 37 - 38) =     13.75750  eV     2   --> G_6   D_6      
     e( 39 - 40) =     14.98031  eV     2   --> G_6   D_6      
     e( 41 - 42) =     15.12992  eV     2   --> G_7   D_7      
     e( 43 - 44) =     15.15808  eV     2   --> G_7   D_7      
     e( 45 - 46) =     15.17130  eV     2   --> G_6   D_6      
     e( 47 - 48) =     15.31332  eV     2   --> G_7   D_7      
     e( 49 - 50) =     17.05521  eV     2   --> G_6   D_6      
     e( 51 - 52) =     17.47527  eV     2   --> G_7   D_7      
     e( 53 - 54) =     17.95851  eV     2   --> G_7   D_7      
     e( 55 - 56) =     18.20612  eV     2   --> G_6   D_6      
     e( 57 - 58) =     18.81484  eV     2   --> G_6   D_6      
     e( 59 - 60) =     18.93038  eV     2   --> G_7   D_7      
     e( 61 - 62) =     18.96455  eV     2   --> G_6   D_6      
     e( 63 - 64) =     19.44682  eV     2   --> G_7   D_7      
     e( 65 - 66) =     19.68087  eV     2   --> G_7   D_7      
     e( 67 - 68) =     20.01481  eV     2   --> G_6   D_6      
     e( 69 - 70) =     20.68569  eV     2   --> G_6   D_6      
     e( 71 - 72) =     20.87707  eV     2   --> G_7   D_7      
     e( 73 - 74) =     22.00340  eV     2   --> G_6   D_6      
     e( 75 - 76) =     25.80226  eV     2   --> G_7   D_7      
     e( 77 - 78) =     25.86642  eV     2   --> G_6   D_6      
     e( 79 - 80) =     27.52476  eV     2   --> G_7   D_7      
     e( 81 - 82) =     27.87469  eV     2   --> G_6   D_6      

 **************************************************************************

 **************************************************************************

                    xk=(   0.00000,   0.14167,   0.00000  )

     Band symmetry, C_4v (4mm)  double point group:

     e(  1 -  2) =    -77.90450  eV     2   --> G_6   D_6      
     e(  3 -  4) =    -77.89044  eV     2   --> G_6   D_6      
     e(  5 -  6) =    -77.88978  eV     2   --> G_7   D_7      
     e(  7 -  8) =    -43.21074  eV     2   --> G_7   D_7      
     e(  9 - 10) =    -43.20837  eV     2   --> G_6   D_6      
     e( 11 - 12) =    -43.15807  eV     2   --> G_6   D_6      
     e( 13 - 14) =    -28.34843  eV     2   --> G_6   D_6      
     e( 15 - 16) =    -28.31554  eV     2   --> G_6   D_6      
     e( 17 - 18) =    -28.31343  eV     2   --> G_7   D_7      
     e( 19 - 20) =    -28.25245  eV     2   --> G_7   D_7      
     e( 21 - 22) =    -28.14732  eV     2   --> G_6   D_6      
     e( 23 - 24) =    -28.14058  eV     2   --> G_7   D_7      
     e( 25 - 26) =      1.56384  eV     2   --> G_7   D_7      
     e( 27 - 28) =      1.56834  eV     2   --> G_6   D_6      
     e( 29 - 30) =      4.07200  eV     2   --> G_7   D_7      
     e( 31 - 32) =      4.08216  eV     2   --> G_6   D_6      
     e( 33 - 34) =      4.10629  eV     2   --> G_7   D_7      
     e( 35 - 36) =      8.50489  eV     2   --> G_6   D_6      
     e( 37 - 38) =     13.76783  eV     2   --> G_6   D_6      
     e( 39 - 40) =     14.95814  eV     2   --> G_6   D_6      
     e( 41 - 42) =     15.13472  eV     2   --> G_7   D_7      
     e( 43 - 44) =     15.16181  eV     2   --> G_7   D_7      
     e( 45 - 46) =     15.17534  eV     2   --> G_6   D_6      
     e( 47 - 48) =     15.32949  eV     2   --> G_7   D_7      
     e( 49 - 50) =     17.00772  eV     2   --> G_6   D_6      
     e( 51 - 52) =     17.45381  eV     2   --> G_7   D_7      
     e( 53 - 54) =     17.94245  eV     2   --> G_7   D_7      
     e( 55 - 56) =     18.13336  eV     2   --> G_6   D_6      
     e( 57 - 58) =     18.80829  eV     2   --> G_6   D_6      
     e( 59 - 60) =     18.91861  eV     2   --> G_7   D_7      
     e( 61 - 62) =     18.95499  eV     2   --> G_6   D_6      
     e( 63 - 64) =     19.43091  eV     2   --> G_7   D_7      
     e( 65 - 66) =     19.66517  eV     2   --> G_7   D_7      
     e( 67 - 68) =     20.02637  eV     2   --> G_6   D_6      
     e( 69 - 70) =     20.72415  eV     2   --> G_6   D_6      
     e( 71 - 72) =     20.93819  eV     2   --> G_7   D_7      
     e( 73 - 74) =     22.02415  eV     2   --> G_6   D_6      
     e( 75 - 76) =     25.79346  eV     2   --> G_7   D_7      
     e( 77 - 78) =     25.89710  eV     2   --> G_6   D_6      
     e( 79 - 80) =     27.50550  eV     2   --> G_7   D_7      
     e( 81 - 82) =     27.90287  eV     2   --> G_6   D_6      

 **************************************************************************

 **************************************************************************

                    xk=(   0.00000,   0.15000,   0.00000  )

     Band symmetry, C_4v (4mm)  double point group:

     e(  1 -  2) =    -77.90442  eV     2   --> G_6   D_6      
     e(  3 -  4) =    -77.89052  eV     2   --> G_6   D_6      
     e(  5 -  6) =    -77.88978  eV     2   --> G_7   D_7      
     e(  7 -  8) =    -43.21074  eV     2   --> G_7   D_7      
     e(  9 - 10) =    -43.20809  eV     2   --> G_6   D_6      
     e( 11 - 12) =    -43.15835  eV     2   --> G_6   D_6      
     e( 13 - 14) =    -28.34769  eV     2   --> G_6   D_6      
     e( 15 - 16) =    -28.31514  eV     2   --> G_6   D_6      
     e( 17 - 18) =    -28.31288  eV     2   --> G_7   D_7      
     e( 19 - 20) =    -28.25263  eV     2   --> G_7   D_7      
     e( 21 - 22) =    -28.14857  eV     2   --> G_6   D_6      
     e( 23 - 24) =    -28.14102  eV     2   --> G_7   D_7      
     e( 25 - 26) =      1.56423  eV     2   --> G_7   D_7      
     e( 27 - 28) =      1.56924  eV     2   --> G_6   D_6      
     e( 29 - 30) =      4.07267  eV     2   --> G_7   D_7      
     e( 31 - 32) =      4.08397  eV     2   --> G_6   D_6      
     e( 33 - 34) =      4.10687  eV     2   --> G_7   D_7      
     e( 35 - 36) =      8.52834  eV     2   --> G_6   D_6      
     e( 37 - 38) =     13.77808  eV     2   --> G_6   D_6      
     e( 39 - 40) =     14.93407  eV     2   --> G_6   D_6      
     e( 41 - 42) =     15.13963  eV     2   --> G_7   D_7      
     e( 43 - 44) =     15.16571  eV     2   --> G_7   D_7      
     e( 45 - 46) =     15.17989  eV     2   --> G_6   D_6      
     e( 47 - 48) =     15.34664  eV     2   --> G_7   D_7      
     e( 49 - 50) =     16.96107  eV     2   --> G_6   D_6      
     e( 51 - 52) =     17.43171  eV     2   --> G_7   D_7      
     e( 53 - 54) =     17.92689  eV     2   --> G_7   D_7      
     e( 55 - 56) =     18.06097  eV     2   --> G_6   D_6      
     e( 57 - 58) =     18.79866  eV     2   --> G_6   D_6      
     e( 59 - 60) =     18.90636  eV     2   --> G_7   D_7      
     e( 61 - 62) =     18.94585  eV     2   --> G_6   D_6      
     e( 63 - 64) =     19.41319  eV     2   --> G_7   D_7      
     e( 65 - 66) =     19.64860  eV     2   --> G_7   D_7      
     e( 67 - 68) =     20.03715  eV     2   --> G_6   D_6      
     e( 69 - 70) =     20.76597  eV     2   --> G_6   D_6      
     e( 71 - 72) =     21.00219  eV     2   --> G_7   D_7      
     e( 73 - 74) =     22.03966  eV     2   --> G_6   D_6      
     e( 75 - 76) =     25.78426  eV     2   --> G_7   D_7      
     e( 77 - 78) =     25.93390  eV     2   --> G_6   D_6      
     e( 79 - 80) =     27.48411  eV     2   --> G_7   D_7      
     e( 81 - 82) =     27.92818  eV     2   --> G_6   D_6      

 **************************************************************************

 **************************************************************************

                    xk=(   0.00000,   0.15833,   0.00000  )

     Band symmetry, C_4v (4mm)  double point group:

     e(  1 -  2) =    -77.90434  eV     2   --> G_6   D_6      
     e(  3 -  4) =    -77.89060  eV     2   --> G_6   D_6      
     e(  5 -  6) =    -77.88978  eV     2   --> G_7   D_7      
     e(  7 -  8) =    -43.21075  eV     2   --> G_7   D_7      
     e(  9 - 10) =    -43.20780  eV     2   --> G_6   D_6      
     e( 11 - 12) =    -43.15865  eV     2   --> G_6   D_6      
     e( 13 - 14) =    -28.34694  eV     2   --> G_6   D_6      
     e( 15 - 16) =    -28.31470  eV     2   --> G_6   D_6      
     e( 17 - 18) =    -28.31230  eV     2   --> G_7   D_7      
     e( 19 - 20) =    -28.25282  eV     2   --> G_7   D_7      
     e( 21 - 22) =    -28.14988  eV     2   --> G_6   D_6      
     e( 23 - 24) =    -28.14146  eV     2   --> G_7   D_7      
     e( 25 - 26) =      1.56464  eV     2   --> G_7   D_7      
     e( 27 - 28) =      1.57017  eV     2   --> G_6   D_6      
     e( 29 - 30) =      4.07335  eV     2   --> G_7   D_7      
     e( 31 - 32) =      4.08584  eV     2   --> G_6   D_6      
     e( 33 - 34) =      4.10748  eV     2   --> G_7   D_7      
     e( 35 - 36) =      8.55305  eV     2   --> G_6   D_6      
     e( 37 - 38) =     13.78805  eV     2   --> G_6   D_6      
     e( 39 - 40) =     14.90825  eV     2   --> G_6   D_6      
     e( 41 - 42) =     15.14461  eV     2   --> G_7   D_7      
     e( 43 - 44) =     15.16977  eV     2   --> G_7   D_7      
     e( 45 - 46) =     15.18486  eV     2   --> G_6   D_6      
     e( 47 - 48) =     15.36474  eV     2   --> G_7   D_7      
     e( 49 - 50) =     16.91547  eV     2   --> G_6   D_6      
     e( 51 - 52) =     17.40913  eV     2   --> G_7   D_7      
     e( 53 - 54) =     17.91182  eV     2   --> G_7   D_7      
     e( 55 - 56) =     17.98963  eV     2   --> G_6   D_6      
     e( 57 - 58) =     18.78596  eV     2   --> G_6   D_6      
     e( 59 - 60) =     18.89355  eV     2   --> G_7   D_7      
     e( 61 - 62) =     18.93674  eV     2   --> G_6   D_6      
     e( 63 - 64) =     19.39377  eV     2   --> G_7   D_7      
     e( 65 - 66) =     19.63128  eV     2   --> G_7   D_7      
     e( 67 - 68) =     20.04715  eV     2   --> G_6   D_6      
     e( 69 - 70) =     20.81115  eV     2   --> G_6   D_6      
     e( 71 - 72) =     21.06883  eV     2   --> G_7   D_7      
     e( 73 - 74) =     22.04980  eV     2   --> G_6   D_6      
     e( 75 - 76) =     25.77466  eV     2   --> G_7   D_7      
     e( 77 - 78) =     25.97665  eV     2   --> G_6   D_6      
     e( 79 - 80) =     27.46055  eV     2   --> G_7   D_7      
     e( 81 - 82) =     27.94985  eV     2   --> G_6   D_6      

 **************************************************************************

 **************************************************************************

                    xk=(   0.00000,   0.16667,   0.00000  )

     Band symmetry, C_4v (4mm)  double point group:

     e(  1 -  2) =    -77.90425  eV     2   --> G_6   D_6      
     e(  3 -  4) =    -77.89068  eV     2   --> G_6   D_6      
     e(  5 -  6) =    -77.88977  eV     2   --> G_7   D_7      
     e(  7 -  8) =    -43.21075  eV     2   --> G_7   D_7      
     e(  9 - 10) =    -43.20750  eV     2   --> G_6   D_6      
     e( 11 - 12) =    -43.15896  eV     2   --> G_6   D_6      
     e( 13 - 14) =    -28.34617  eV     2   --> G_6   D_6      
     e( 15 - 16) =    -28.31422  eV     2   --> G_6   D_6      
     e( 17 - 18) =    -28.31169  eV     2   --> G_7   D_7      
     e( 19 - 20) =    -28.25301  eV     2   --> G_7   D_7      
     e( 21 - 22) =    -28.15126  eV     2   --> G_6   D_6      
     e( 23 - 24) =    -28.14193  eV     2   --> G_7   D_7      
     e( 25 - 26) =      1.56506  eV     2   --> G_7   D_7      
     e( 27 - 28) =      1.57113  eV     2   --> G_6   D_6      
     e( 29 - 30) =      4.07407  eV     2   --> G_7   D_7      
     e( 31 - 32) =      4.08778  eV     2   --> G_6   D_6      
     e( 33 - 34) =      4.10811  eV     2   --> G_7   D_7      
     e( 35 - 36) =      8.57900  eV     2   --> G_6   D_6      
     e( 37 - 38) =     13.79751  eV     2   --> G_6   D_6      
     e( 39 - 40) =     14.88089  eV     2   --> G_6   D_6      
     e( 41 - 42) =     15.14967  eV     2   --> G_7   D_7      
     e( 43 - 44) =     15.17396  eV     2   --> G_7   D_7      
     e( 45 - 46) =     15.19016  eV     2   --> G_6   D_6      
     e( 47 - 48) =     15.38377  eV     2   --> G_7   D_7      
     e( 49 - 50) =     16.87108  eV     2   --> G_6   D_6      
     e( 51 - 52) =     17.38623  eV     2   --> G_7   D_7      
     e( 53 - 54) =     17.89725  eV     2   --> G_7   D_7      
     e( 55 - 56) =     17.91978  eV     2   --> G_6   D_6      
     e( 57 - 58) =     18.77048  eV     2   --> G_6   D_6      
     e( 59 - 60) =     18.88013  eV     2   --> G_7   D_7      
     e( 61 - 62) =     18.92718  eV     2   --> G_6   D_6      
     e( 63 - 64) =     19.37274  eV     2   --> G_7   D_7      
     e( 65 - 66) =     19.61334  eV     2   --> G_7   D_7      
     e( 67 - 68) =     20.05637  eV     2   --> G_6   D_6      
     e( 69 - 70) =     20.85966  eV     2   --> G_6   D_6      
     e( 71 - 72) =     21.13793  eV     2   --> G_7   D_7      
     e( 73 - 74) =     22.05461  eV     2   --> G_6   D_6      
     e( 75 - 76) =     25.76470  eV     2   --> G_7   D_7      
     e( 77 - 78) =     26.02508  eV     2   --> G_6   D_6      
     e( 79 - 80) =     27.43478  eV     2   --> G_7   D_7      
     e( 81 - 82) =     27.96713  eV     2   --> G_6   D_6      

 **************************************************************************

 **************************************************************************

                    xk=(   0.00000,   0.17500,   0.00000  )

     Band symmetry, C_4v (4mm)  double point group:

     e(  1 -  2) =    -77.90416  eV     2   --> G_6   D_6      
     e(  3 -  4) =    -77.89077  eV     2   --> G_6   D_6      
     e(  5 -  6) =    -77.88977  eV     2   --> G_7   D_7      
     e(  7 -  8) =    -43.21075  eV     2   --> G_7   D_7      
     e(  9 - 10) =    -43.20718  eV     2   --> G_6   D_6      
     e( 11 - 12) =    -43.15928  eV     2   --> G_6   D_6      
     e( 13 - 14) =    -28.34539  eV     2   --> G_6   D_6      
     e( 15 - 16) =    -28.31368  eV     2   --> G_6   D_6      
     e( 17 - 18) =    -28.31105  eV     2   --> G_7   D_7      
     e( 19 - 20) =    -28.25322  eV     2   --> G_7   D_7      
     e( 21 - 22) =    -28.15270  eV     2   --> G_6   D_6      
     e( 23 - 24) =    -28.14242  eV     2   --> G_7   D_7      
     e( 25 - 26) =      1.56549  eV     2   --> G_7   D_7      
     e( 27 - 28) =      1.57212  eV     2   --> G_6   D_6      
     e( 29 - 30) =      4.07480  eV     2   --> G_7   D_7      
     e( 31 - 32) =      4.08978  eV     2   --> G_6   D_6      
     e( 33 - 34) =      4.10876  eV     2   --> G_7   D_7      
     e( 35 - 36) =      8.60617  eV     2   --> G_6   D_6      
     e( 37 - 38) =     13.80618  eV     2   --> G_6   D_6      
     e( 39 - 40) =     14.85223  eV     2   --> G_6   D_6      
     e( 41 - 42) =     15.15477  eV     2   --> G_7   D_7      
     e( 43 - 44) =     15.17829  eV     2   --> G_7   D_7      
     e( 45 - 46) =     15.19573  eV     2   --> G_6   D_6      
     e( 47 - 48) =     15.40370  eV     2   --> G_7   D_7      
     e( 49 - 50) =     16.82808  eV     2   --> G_6   D_6      
     e( 51 - 52) =     17.36320  eV     2   --> G_7   D_7      
     e( 53 - 54) =     17.85174  eV     2   --> G_6   D_6      
     e( 55 - 56) =     17.88317  eV     2   --> G_7   D_7      
     e( 57 - 58) =     18.75263  eV     2   --> G_6   D_6      
     e( 59 - 60) =     18.86603  eV     2   --> G_7   D_7      
     e( 61 - 62) =     18.91675  eV     2   --> G_6   D_6      
     e( 63 - 64) =     19.35018  eV     2   --> G_7   D_7      
     e( 65 - 66) =     19.59492  eV     2   --> G_7   D_7      
     e( 67 - 68) =     20.06484  eV     2   --> G_6   D_6      
     e( 69 - 70) =     20.91136  eV     2   --> G_6   D_6      
     e( 71 - 72) =     21.20928  eV     2   --> G_7   D_7      
     e( 73 - 74) =     22.05423  eV     2   --> G_6   D_6      
     e( 75 - 76) =     25.75440  eV     2   --> G_7   D_7      
     e( 77 - 78) =     26.07877  eV     2   --> G_6   D_6      
     e( 79 - 80) =     27.40677  eV     2   --> G_7   D_7      
     e( 81 - 82) =     27.97944  eV     2   --> G_6   D_6      

 **************************************************************************

 **************************************************************************

                    xk=(   0.00000,   0.18333,   0.00000  )

     Band symmetry, C_4v (4mm)  double point group:

     e(  1 -  2) =    -77.90407  eV     2   --> G_6   D_6      
     e(  3 -  4) =    -77.89087  eV     2   --> G_6   D_6      
     e(  5 -  6) =    -77.88977  eV     2   --> G_7   D_7      
     e(  7 -  8) =    -43.21075  eV     2   --> G_7   D_7      
     e(  9 - 10) =    -43.20685  eV     2   --> G_6   D_6      
     e( 11 - 12) =    -43.15962  eV     2   --> G_6   D_6      
     e( 13 - 14) =    -28.34461  eV     2   --> G_6   D_6      
     e( 15 - 16) =    -28.31310  eV     2   --> G_6   D_6      
     e( 17 - 18) =    -28.31039  eV     2   --> G_7   D_7      
     e( 19 - 20) =    -28.25344  eV     2   --> G_7   D_7      
     e( 21 - 22) =    -28.15420  eV     2   --> G_6   D_6      
     e( 23 - 24) =    -28.14291  eV     2   --> G_7   D_7      
     e( 25 - 26) =      1.56594  eV     2   --> G_7   D_7      
     e( 27 - 28) =      1.57314  eV     2   --> G_6   D_6      
     e( 29 - 30) =      4.07555  eV     2   --> G_7   D_7      
     e( 31 - 32) =      4.09183  eV     2   --> G_6   D_6      
     e( 33 - 34) =      4.10943  eV     2   --> G_7   D_7      
     e( 35 - 36) =      8.63455  eV     2   --> G_6   D_6      
     e( 37 - 38) =     13.81372  eV     2   --> G_6   D_6      
     e( 39 - 40) =     14.82259  eV     2   --> G_6   D_6      
     e( 41 - 42) =     15.15991  eV     2   --> G_7   D_7      
     e( 43 - 44) =     15.18274  eV     2   --> G_7   D_7      
     e( 45 - 46) =     15.20151  eV     2   --> G_6   D_6      
     e( 47 - 48) =     15.42451  eV     2   --> G_7   D_7      
     e( 49 - 50) =     16.78661  eV     2   --> G_6   D_6      
     e( 51 - 52) =     17.34019  eV     2   --> G_7   D_7      
     e( 53 - 54) =     17.78575  eV     2   --> G_6   D_6      
     e( 55 - 56) =     17.86955  eV     2   --> G_7   D_7      
     e( 57 - 58) =     18.73277  eV     2   --> G_6   D_6      
     e( 59 - 60) =     18.85118  eV     2   --> G_7   D_7      
     e( 61 - 62) =     18.90515  eV     2   --> G_6   D_6      
     e( 63 - 64) =     19.32618  eV     2   --> G_7   D_7      
     e( 65 - 66) =     19.57616  eV     2   --> G_7   D_7      
     e( 67 - 68) =     20.07257  eV     2   --> G_6   D_6      
     e( 69 - 70) =     20.96610  eV     2   --> G_6   D_6      
     e( 71 - 72) =     21.28272  eV     2   --> G_7   D_7      
     e( 73 - 74) =     22.04892  eV     2   --> G_6   D_6      
     e( 75 - 76) =     25.74379  eV     2   --> G_7   D_7      
     e( 77 - 78) =     26.13716  eV     2   --> G_6   D_6      
     e( 79 - 80) =     27.37653  eV     2   --> G_7   D_7      
     e( 81 - 82) =     27.98640  eV     2   --> G_6   D_6      

 **************************************************************************

 **************************************************************************

                    xk=(   0.00000,   0.19167,   0.00000  )

     Band symmetry, C_4v (4mm)  double point group:

     e(  1 -  2) =    -77.90397  eV     2   --> G_6   D_6      
     e(  3 -  4) =    -77.89096  eV     2   --> G_6   D_6      
     e(  5 -  6) =    -77.88977  eV     2   --> G_7   D_7      
     e(  7 -  8) =    -43.21076  eV     2   --> G_7   D_7      
     e(  9 - 10) =    -43.20651  eV     2   --> G_6   D_6      
     e( 11 - 12) =    -43.15997  eV     2   --> G_6   D_6      
     e( 13 - 14) =    -28.34383  eV     2   --> G_6   D_6      
     e( 15 - 16) =    -28.31245  eV     2   --> G_6   D_6      
     e( 17 - 18) =    -28.30970  eV     2   --> G_7   D_7      
     e( 19 - 20) =    -28.25368  eV     2   --> G_7   D_7      
     e( 21 - 22) =    -28.15576  eV     2   --> G_6   D_6      
     e( 23 - 24) =    -28.14343  eV     2   --> G_7   D_7      
     e( 25 - 26) =      1.56640  eV     2   --> G_7   D_7      
     e( 27 - 28) =      1.57418  eV     2   --> G_6   D_6      
     e( 29 - 30) =      4.07632  eV     2   --> G_7   D_7      
     e( 31 - 32) =      4.09393  eV     2   --> G_6   D_6      
     e( 33 - 34) =      4.11011  eV     2   --> G_7   D_7      
     e( 35 - 36) =      8.66411  eV     2   --> G_6   D_6      
     e( 37 - 38) =     13.81973  eV     2   --> G_6   D_6      
     e( 39 - 40) =     14.79235  eV     2   --> G_6   D_6      
     e( 41 - 42) =     15.16507  eV     2   --> G_7   D_7      
     e( 43 - 44) =     15.18730  eV     2   --> G_7   D_7      
     e( 45 - 46) =     15.20744  eV     2   --> G_6   D_6      
     e( 47 - 48) =     15.44617  eV     2   --> G_7   D_7      
     e( 49 - 50) =     16.74682  eV     2   --> G_6   D_6      
     e( 51 - 52) =     17.31736  eV     2   --> G_7   D_7      
     e( 53 - 54) =     17.72197  eV     2   --> G_6   D_6      
     e( 55 - 56) =     17.85639  eV     2   --> G_7   D_7      
     e( 57 - 58) =     18.71126  eV     2   --> G_6   D_6      
     e( 59 - 60) =     18.83555  eV     2   --> G_7   D_7      
     e( 61 - 62) =     18.89214  eV     2   --> G_6   D_6      
     e( 63 - 64) =     19.30080  eV     2   --> G_7   D_7      
     e( 65 - 66) =     19.55721  eV     2   --> G_7   D_7      
     e( 67 - 68) =     20.07960  eV     2   --> G_6   D_6      
     e( 69 - 70) =     21.02368  eV     2   --> G_6   D_6      
     e( 71 - 72) =     21.35808  eV     2   --> G_7   D_7      
     e( 73 - 74) =     22.03898  eV     2   --> G_6   D_6      
     e( 75 - 76) =     25.73289  eV     2   --> G_7   D_7      
     e( 77 - 78) =     26.19959  eV     2   --> G_6   D_6      
     e( 79 - 80) =     27.34404  eV     2   --> G_7   D_7      
     e( 81 - 82) =     27.98789  eV     2   --> G_6   D_6      

 **************************************************************************

 **************************************************************************

                    xk=(   0.00000,   0.20000,   0.00000  )

     Band symmetry, C_4v (4mm)  double point group:

     e(  1 -  2) =    -77.90387  eV     2   --> G_6   D_6      
     e(  3 -  4) =    -77.89106  eV     2   --> G_6   D_6      
     e(  5 -  6) =    -77.88977  eV     2   --> G_7   D_7      
     e(  7 -  8) =    -43.21076  eV     2   --> G_7   D_7      
     e(  9 - 10) =    -43.20615  eV     2   --> G_6   D_6      
     e( 11 - 12) =    -43.16034  eV     2   --> G_6   D_6      
     e( 13 - 14) =    -28.34305  eV     2   --> G_6   D_6      
     e( 15 - 16) =    -28.31173  eV     2   --> G_6   D_6      
     e( 17 - 18) =    -28.30899  eV     2   --> G_7   D_7      
     e( 19 - 20) =    -28.25392  eV     2   --> G_7   D_7      
     e( 21 - 22) =    -28.15738  eV     2   --> G_6   D_6      
     e( 23 - 24) =    -28.14395  eV     2   --> G_7   D_7      
     e( 25 - 26) =      1.56686  eV     2   --> G_7   D_7      
     e( 27 - 28) =      1.57525  eV     2   --> G_6   D_6      
     e( 29 - 30) =      4.07711  eV     2   --> G_7   D_7      
     e( 31 - 32) =      4.09608  eV     2   --> G_6   D_6      
     e( 33 - 34) =      4.11081  eV     2   --> G_7   D_7      
     e( 35 - 36) =      8.69483  eV     2   --> G_6   D_6      
     e( 37 - 38) =     13.82373  eV     2   --> G_6   D_6      
     e( 39 - 40) =     14.76201  eV     2   --> G_6   D_6      
     e( 41 - 42) =     15.17023  eV     2   --> G_7   D_7      
     e( 43 - 44) =     15.19195  eV     2   --> G_7   D_7      
     e( 45 - 46) =     15.21347  eV     2   --> G_6   D_6      
     e( 47 - 48) =     15.46864  eV     2   --> G_7   D_7      
     e( 49 - 50) =     16.70882  eV     2   --> G_6   D_6      
     e( 51 - 52) =     17.29486  eV     2   --> G_7   D_7      
     e( 53 - 54) =     17.66050  eV     2   --> G_6   D_6      
     e( 55 - 56) =     17.84367  eV     2   --> G_7   D_7      
     e( 57 - 58) =     18.68838  eV     2   --> G_6   D_6      
     e( 59 - 60) =     18.81907  eV     2   --> G_7   D_7      
     e( 61 - 62) =     18.87762  eV     2   --> G_6   D_6      
     e( 63 - 64) =     19.27408  eV     2   --> G_7   D_7      
     e( 65 - 66) =     19.53824  eV     2   --> G_7   D_7      
     e( 67 - 68) =     20.08598  eV     2   --> G_6   D_6      
     e( 69 - 70) =     21.08386  eV     2   --> G_6   D_6      
     e( 71 - 72) =     21.43522  eV     2   --> G_7   D_7      
     e( 73 - 74) =     22.02484  eV     2   --> G_6   D_6      
     e( 75 - 76) =     25.72172  eV     2   --> G_7   D_7      
     e( 77 - 78) =     26.26531  eV     2   --> G_6   D_6      
     e( 79 - 80) =     27.30932  eV     2   --> G_7   D_7      
     e( 81 - 82) =     27.98403  eV     2   --> G_6   D_6      

 **************************************************************************

 **************************************************************************

                    xk=(   0.00000,   0.20833,   0.00000  )

     Band symmetry, C_4v (4mm)  double point group:

     e(  1 -  2) =    -77.90377  eV     2   --> G_6   D_6      
     e(  3 -  4) =    -77.89117  eV     2   --> G_6   D_6      
     e(  5 -  6) =    -77.88977  eV     2   --> G_7   D_7      
     e(  7 -  8) =    -43.21076  eV     2   --> G_7   D_7      
     e(  9 - 10) =    -43.20578  eV     2   --> G_6   D_6      
     e( 11 - 12) =    -43.16071  eV     2   --> G_6   D_6      
     e( 13 - 14) =    -28.34229  eV     2   --> G_6   D_6      
     e( 15 - 16) =    -28.31095  eV     2   --> G_6   D_6      
     e( 17 - 18) =    -28.30826  eV     2   --> G_7   D_7      
     e( 19 - 20) =    -28.25418  eV     2   --> G_7   D_7      
     e( 21 - 22) =    -28.15905  eV     2   --> G_6   D_6      
     e( 23 - 24) =    -28.14449  eV     2   --> G_7   D_7      
     e( 25 - 26) =      1.56733  eV     2   --> G_7   D_7      
     e( 27 - 28) =      1.57633  eV     2   --> G_6   D_6      
     e( 29 - 30) =      4.07791  eV     2   --> G_7   D_7      
     e( 31 - 32) =      4.09826  eV     2   --> G_6   D_6      
     e( 33 - 34) =      4.11153  eV     2   --> G_7   D_7      
     e( 35 - 36) =      8.72668  eV     2   --> G_6   D_6      
     e( 37 - 38) =     13.82518  eV     2   --> G_6   D_6      
     e( 39 - 40) =     14.73214  eV     2   --> G_6   D_6      
     e( 41 - 42) =     15.17538  eV     2   --> G_7   D_7      
     e( 43 - 44) =     15.19668  eV     2   --> G_7   D_7      
     e( 45 - 46) =     15.21956  eV     2   --> G_6   D_6      
     e( 47 - 48) =     15.49189  eV     2   --> G_7   D_7      
     e( 49 - 50) =     16.67271  eV     2   --> G_6   D_6      
     e( 51 - 52) =     17.27282  eV     2   --> G_7   D_7      
     e( 53 - 54) =     17.60140  eV     2   --> G_6   D_6      
     e( 55 - 56) =     17.83136  eV     2   --> G_7   D_7      
     e( 57 - 58) =     18.66434  eV     2   --> G_6   D_6      
     e( 59 - 60) =     18.80170  eV     2   --> G_7   D_7      
[...]
     e( 69 - 70) =     20.92477  eV     2   --> G_7   D_7      
     e( 71 - 72) =     20.97052  eV     2   --> G_6   D_6      
     e( 73 - 74) =     24.32739  eV     2   --> G_6   D_6      
     e( 75 - 76) =     26.04939  eV     2   --> G_6   D_6      
     e( 77 - 78) =     27.00535  eV     2   --> G_7   D_7      
     e( 79 - 80) =     27.45278  eV     2   --> G_6   D_6      
     e( 81 - 82) =     28.38421  eV     2   --> G_7   D_7      

 **************************************************************************

 **************************************************************************

                    xk=(   0.50000,   0.50000,   0.04167  )

     Band symmetry, C_4v (4mm)  double point group:

     e(  1 -  6) =    -77.89489  eV     6   --> G_6   D_6      
     e(  1 -  6) =    -77.89489  eV     6   -->   2 G_7   D_7      
     e(  7 -  8) =    -43.19297  eV     2   --> G_6   D_6      
     e(  9 - 10) =    -43.19262  eV     2   --> G_7   D_7      
     e( 11 - 12) =    -43.19244  eV     2   --> G_7   D_7      
     e( 13 - 14) =    -28.32943  eV     2   --> G_6   D_6      
     e( 15 - 16) =    -28.30041  eV     2   --> G_7   D_7      
     e( 17 - 18) =    -28.27089  eV     2   --> G_6   D_6      
     e( 19 - 20) =    -28.23965  eV     2   --> G_7   D_7      
     e( 21 - 22) =    -28.20602  eV     2   --> G_7   D_7      
     e( 23 - 24) =    -28.18154  eV     2   --> G_6   D_6      
     e( 25 - 26) =      1.59702  eV     2   --> G_6   D_6      
     e( 27 - 28) =      1.59954  eV     2   --> G_7   D_7      
     e( 29 - 30) =      4.10203  eV     2   --> G_7   D_7      
     e( 31 - 32) =      4.13242  eV     2   --> G_6   D_6      
     e( 33 - 34) =      4.18639  eV     2   --> G_7   D_7      
     e( 35 - 36) =     10.69778  eV     2   --> G_6   D_6      
     e( 37 - 38) =     13.77685  eV     2   --> G_6   D_6      
     e( 39 - 40) =     13.88581  eV     2   --> G_7   D_7      
     e( 41 - 42) =     14.97642  eV     2   --> G_6   D_6      
     e( 43 - 44) =     15.63480  eV     2   --> G_7   D_7      
     e( 45 - 46) =     15.82679  eV     2   --> G_6   D_6      
     e( 47 - 48) =     15.86083  eV     2   --> G_7   D_7      
     e( 49 - 50) =     16.10097  eV     2   --> G_7   D_7      
     e( 51 - 52) =     16.66754  eV     2   --> G_7   D_7      
     e( 53 - 54) =     16.79722  eV     2   --> G_6   D_6      
     e( 55 - 56) =     17.55343  eV     2   --> G_6   D_6      
     e( 57 - 58) =     17.74033  eV     2   --> G_7   D_7      
     e( 59 - 60) =     17.83160  eV     2   --> G_6   D_6      
     e( 61 - 62) =     18.22512  eV     2   --> G_7   D_7      
     e( 63 - 64) =     18.42134  eV     2   --> G_7   D_7      
     e( 65 - 66) =     18.55023  eV     2   --> G_6   D_6      
     e( 67 - 68) =     18.90992  eV     2   --> G_6   D_6      
     e( 69 - 70) =     20.92878  eV     2   --> G_7   D_7      
     e( 71 - 72) =     20.97621  eV     2   --> G_6   D_6      
     e( 73 - 74) =     24.41230  eV     2   --> G_6   D_6      
     e( 75 - 76) =     26.04873  eV     2   --> G_6   D_6      
     e( 77 - 78) =     27.12385  eV     2   --> G_7   D_7      
     e( 79 - 80) =     27.44924  eV     2   --> G_6   D_6      
     e( 81 - 82) =     28.41985  eV     2   --> G_7   D_7      

 **************************************************************************

 **************************************************************************

                    xk=(   0.50000,   0.50000,   0.03333  )

     Band symmetry, C_4v (4mm)  double point group:

     e(  1 -  6) =    -77.89489  eV     6   --> G_6   D_6      
     e(  1 -  6) =    -77.89489  eV     6   -->   2 G_7   D_7      
     e(  7 -  8) =    -43.19297  eV     2   --> G_6   D_6      
     e(  9 - 10) =    -43.19262  eV     2   --> G_7   D_7      
     e( 11 - 12) =    -43.19244  eV     2   --> G_7   D_7      
     e( 13 - 14) =    -28.32902  eV     2   --> G_6   D_6      
     e( 15 - 16) =    -28.30014  eV     2   --> G_7   D_7      
     e( 17 - 18) =    -28.27108  eV     2   --> G_6   D_6      
     e( 19 - 20) =    -28.23917  eV     2   --> G_7   D_7      
     e( 21 - 22) =    -28.20676  eV     2   --> G_7   D_7      
     e( 23 - 24) =    -28.18176  eV     2   --> G_6   D_6      
     e( 25 - 26) =      1.59711  eV     2   --> G_6   D_6      
     e( 27 - 28) =      1.59965  eV     2   --> G_7   D_7      
     e( 29 - 30) =      4.10230  eV     2   --> G_7   D_7      
     e( 31 - 32) =      4.13235  eV     2   --> G_6   D_6      
     e( 33 - 34) =      4.18670  eV     2   --> G_7   D_7      
     e( 35 - 36) =     10.70063  eV     2   --> G_6   D_6      
     e( 37 - 38) =     13.77160  eV     2   --> G_6   D_6      
     e( 39 - 40) =     13.88095  eV     2   --> G_7   D_7      
     e( 41 - 42) =     14.96800  eV     2   --> G_6   D_6      
     e( 43 - 44) =     15.66403  eV     2   --> G_7   D_7      
     e( 45 - 46) =     15.82705  eV     2   --> G_6   D_6      
     e( 47 - 48) =     15.86318  eV     2   --> G_7   D_7      
     e( 49 - 50) =     16.06785  eV     2   --> G_7   D_7      
     e( 51 - 52) =     16.66862  eV     2   --> G_7   D_7      
     e( 53 - 54) =     16.80123  eV     2   --> G_6   D_6      
     e( 55 - 56) =     17.56529  eV     2   --> G_6   D_6      
     e( 57 - 58) =     17.73272  eV     2   --> G_7   D_7      
     e( 59 - 60) =     17.82017  eV     2   --> G_6   D_6      
     e( 61 - 62) =     18.22077  eV     2   --> G_7   D_7      
     e( 63 - 64) =     18.42013  eV     2   --> G_7   D_7      
     e( 65 - 66) =     18.54568  eV     2   --> G_6   D_6      
     e( 67 - 68) =     18.90453  eV     2   --> G_6   D_6      
     e( 69 - 70) =     20.93205  eV     2   --> G_7   D_7      
     e( 71 - 72) =     20.98083  eV     2   --> G_6   D_6      
     e( 73 - 74) =     24.48765  eV     2   --> G_6   D_6      
     e( 75 - 76) =     26.03823  eV     2   --> G_6   D_6      
     e( 77 - 78) =     27.23631  eV     2   --> G_7   D_7      
     e( 79 - 80) =     27.45817  eV     2   --> G_6   D_6      
     e( 81 - 82) =     28.42234  eV     2   --> G_7   D_7      

 **************************************************************************

 **************************************************************************

                    xk=(   0.50000,   0.50000,   0.02500  )

     Band symmetry, C_4v (4mm)  double point group:

     e(  1 -  6) =    -77.89489  eV     6   --> G_6   D_6      
     e(  1 -  6) =    -77.89489  eV     6   -->   2 G_7   D_7      
     e(  7 -  8) =    -43.19297  eV     2   --> G_6   D_6      
     e(  9 - 10) =    -43.19261  eV     2   --> G_7   D_7      
     e( 11 - 12) =    -43.19244  eV     2   --> G_7   D_7      
     e( 13 - 14) =    -28.32870  eV     2   --> G_6   D_6      
     e( 15 - 16) =    -28.29993  eV     2   --> G_7   D_7      
     e( 17 - 18) =    -28.27124  eV     2   --> G_6   D_6      
     e( 19 - 20) =    -28.23878  eV     2   --> G_7   D_7      
     e( 21 - 22) =    -28.20736  eV     2   --> G_7   D_7      
     e( 23 - 24) =    -28.18193  eV     2   --> G_6   D_6      
     e( 25 - 26) =      1.59719  eV     2   --> G_6   D_6      
     e( 27 - 28) =      1.59974  eV     2   --> G_7   D_7      
     e( 29 - 30) =      4.10251  eV     2   --> G_7   D_7      
     e( 31 - 32) =      4.13228  eV     2   --> G_6   D_6      
     e( 33 - 34) =      4.18695  eV     2   --> G_7   D_7      
     e( 35 - 36) =     10.70286  eV     2   --> G_6   D_6      
     e( 37 - 38) =     13.76751  eV     2   --> G_6   D_6      
     e( 39 - 40) =     13.87715  eV     2   --> G_7   D_7      
     e( 41 - 42) =     14.96143  eV     2   --> G_6   D_6      
     e( 43 - 44) =     15.68968  eV     2   --> G_7   D_7      
     e( 45 - 46) =     15.82727  eV     2   --> G_6   D_6      
     e( 47 - 48) =     15.86753  eV     2   --> G_7   D_7      
     e( 49 - 50) =     16.03650  eV     2   --> G_7   D_7      
     e( 51 - 52) =     16.66968  eV     2   --> G_7   D_7      
     e( 53 - 54) =     16.80441  eV     2   --> G_6   D_6      
     e( 55 - 56) =     17.57526  eV     2   --> G_6   D_6      
     e( 57 - 58) =     17.72673  eV     2   --> G_7   D_7      
     e( 59 - 60) =     17.81058  eV     2   --> G_6   D_6      
     e( 61 - 62) =     18.21736  eV     2   --> G_7   D_7      
     e( 63 - 64) =     18.41920  eV     2   --> G_7   D_7      
     e( 65 - 66) =     18.54198  eV     2   --> G_6   D_6      
     e( 67 - 68) =     18.90039  eV     2   --> G_6   D_6      
     e( 69 - 70) =     20.93458  eV     2   --> G_7   D_7      
     e( 71 - 72) =     20.98441  eV     2   --> G_6   D_6      
     e( 73 - 74) =     24.55083  eV     2   --> G_6   D_6      
     e( 75 - 76) =     26.02238  eV     2   --> G_6   D_6      
     e( 77 - 78) =     27.33870  eV     2   --> G_7   D_7      
     e( 79 - 80) =     27.47460  eV     2   --> G_6   D_6      
     e( 81 - 82) =     28.39512  eV     2   --> G_7   D_7      

 **************************************************************************

 **************************************************************************

                    xk=(   0.50000,   0.50000,   0.01667  )

     Band symmetry, C_4v (4mm)  double point group:

     e(  1 -  6) =    -77.89489  eV     6   --> G_6   D_6      
     e(  1 -  6) =    -77.89489  eV     6   -->   2 G_7   D_7      
     e(  7 -  8) =    -43.19297  eV     2   --> G_6   D_6      
     e(  9 - 10) =    -43.19261  eV     2   --> G_7   D_7      
     e( 11 - 12) =    -43.19244  eV     2   --> G_7   D_7      
     e( 13 - 14) =    -28.32847  eV     2   --> G_6   D_6      
     e( 15 - 16) =    -28.29977  eV     2   --> G_7   D_7      
     e( 17 - 18) =    -28.27135  eV     2   --> G_6   D_6      
     e( 19 - 20) =    -28.23849  eV     2   --> G_7   D_7      
     e( 21 - 22) =    -28.20781  eV     2   --> G_7   D_7      
     e( 23 - 24) =    -28.18205  eV     2   --> G_6   D_6      
     e( 25 - 26) =      1.59724  eV     2   --> G_6   D_6      
     e( 27 - 28) =      1.59980  eV     2   --> G_7   D_7      
     e( 29 - 30) =      4.10266  eV     2   --> G_7   D_7      
     e( 31 - 32) =      4.13224  eV     2   --> G_6   D_6      
     e( 33 - 34) =      4.18713  eV     2   --> G_7   D_7      
     e( 35 - 36) =     10.70447  eV     2   --> G_6   D_6      
     e( 37 - 38) =     13.76458  eV     2   --> G_6   D_6      
     e( 39 - 40) =     13.87443  eV     2   --> G_7   D_7      
     e( 41 - 42) =     14.95673  eV     2   --> G_6   D_6      
     e( 43 - 44) =     15.71002  eV     2   --> G_7   D_7      
     e( 45 - 46) =     15.82743  eV     2   --> G_6   D_6      
     e( 47 - 48) =     15.87400  eV     2   --> G_7   D_7      
     e( 49 - 50) =     16.00865  eV     2   --> G_7   D_7      
     e( 51 - 52) =     16.67056  eV     2   --> G_7   D_7      
     e( 53 - 54) =     16.80670  eV     2   --> G_6   D_6      
     e( 55 - 56) =     17.58288  eV     2   --> G_6   D_6      
     e( 57 - 58) =     17.72241  eV     2   --> G_7   D_7      
     e( 59 - 60) =     17.80325  eV     2   --> G_6   D_6      
     e( 61 - 62) =     18.21491  eV     2   --> G_7   D_7      
     e( 63 - 64) =     18.41854  eV     2   --> G_7   D_7      
     e( 65 - 66) =     18.53925  eV     2   --> G_6   D_6      
     e( 67 - 68) =     18.89745  eV     2   --> G_6   D_6      
     e( 69 - 70) =     20.93638  eV     2   --> G_7   D_7      
     e( 71 - 72) =     20.98696  eV     2   --> G_6   D_6      
     e( 73 - 74) =     24.59896  eV     2   --> G_6   D_6      
     e( 75 - 76) =     26.00620  eV     2   --> G_6   D_6      
     e( 77 - 78) =     27.42446  eV     2   --> G_7   D_7      
     e( 79 - 80) =     27.49261  eV     2   --> G_6   D_6      
     e( 81 - 82) =     28.35301  eV     2   --> G_7   D_7      

 **************************************************************************

 **************************************************************************

                    xk=(   0.50000,   0.50000,   0.00833  )

     Band symmetry, C_4v (4mm)  double point group:

     e(  1 -  6) =    -77.89489  eV     6   --> G_6   D_6      
     e(  1 -  6) =    -77.89489  eV     6   -->   2 G_7   D_7      
     e(  7 -  8) =    -43.19297  eV     2   --> G_6   D_6      
     e(  9 - 10) =    -43.19261  eV     2   --> G_7   D_7      
     e( 11 - 12) =    -43.19244  eV     2   --> G_7   D_7      
     e( 13 - 14) =    -28.32833  eV     2   --> G_6   D_6      
     e( 15 - 16) =    -28.29968  eV     2   --> G_7   D_7      
     e( 17 - 18) =    -28.27141  eV     2   --> G_6   D_6      
     e( 19 - 20) =    -28.23831  eV     2   --> G_7   D_7      
     e( 21 - 22) =    -28.20808  eV     2   --> G_7   D_7      
     e( 23 - 24) =    -28.18212  eV     2   --> G_6   D_6      
     e( 25 - 26) =      1.59727  eV     2   --> G_6   D_6      
     e( 27 - 28) =      1.59984  eV     2   --> G_7   D_7      
     e( 29 - 30) =      4.10275  eV     2   --> G_7   D_7      
     e( 31 - 32) =      4.13222  eV     2   --> G_6   D_6      
     e( 33 - 34) =      4.18723  eV     2   --> G_7   D_7      
     e( 35 - 36) =     10.70543  eV     2   --> G_6   D_6      
     e( 37 - 38) =     13.76281  eV     2   --> G_6   D_6      
     e( 39 - 40) =     13.87279  eV     2   --> G_7   D_7      
     e( 41 - 42) =     14.95391  eV     2   --> G_6   D_6      
     e( 43 - 44) =     15.72315  eV     2   --> G_7   D_7      
     e( 45 - 46) =     15.82753  eV     2   --> G_6   D_6      
     e( 47 - 48) =     15.88119  eV     2   --> G_7   D_7      
     e( 49 - 50) =     15.98766  eV     2   --> G_7   D_7      
     e( 51 - 52) =     16.67114  eV     2   --> G_7   D_7      
     e( 53 - 54) =     16.80809  eV     2   --> G_6   D_6      
     e( 55 - 56) =     17.58769  eV     2   --> G_6   D_6      
     e( 57 - 58) =     17.71980  eV     2   --> G_7   D_7      
     e( 59 - 60) =     17.79863  eV     2   --> G_6   D_6      
     e( 61 - 62) =     18.21343  eV     2   --> G_7   D_7      
     e( 63 - 64) =     18.41814  eV     2   --> G_7   D_7      
     e( 65 - 66) =     18.53757  eV     2   --> G_6   D_6      
     e( 67 - 68) =     18.89569  eV     2   --> G_6   D_6      
     e( 69 - 70) =     20.93746  eV     2   --> G_7   D_7      
     e( 71 - 72) =     20.98849  eV     2   --> G_6   D_6      
     e( 73 - 74) =     24.62925  eV     2   --> G_6   D_6      
     e( 75 - 76) =     25.99429  eV     2   --> G_6   D_6      
     e( 77 - 78) =     27.48375  eV     2   --> G_7   D_7      
     e( 79 - 80) =     27.50642  eV     2   --> G_6   D_6      
     e( 81 - 82) =     28.31572  eV     2   --> G_7   D_7      

 **************************************************************************

 **************************************************************************

                    xk=(   0.50000,   0.50000,   0.00000  )

     double point group D_4h(4/mmm)
     there are 14 classes and  4 irreducible representations
     the character table:

       E     -E    2C4   -2C4   C2    2C2' 2C2'' i     -i    2S4   -2S4   s_h 
                               -C2   -2C2' -2C2'                         -s_h 
G_6+   2.00 -2.00  1.41 -1.41  0.00  0.00  0.00  2.00 -2.00  1.41 -1.41  0.00
G_7+   2.00 -2.00 -1.41  1.41  0.00  0.00  0.00  2.00 -2.00 -1.41  1.41  0.00
G_6-   2.00 -2.00  1.41 -1.41  0.00  0.00  0.00 -2.00  2.00 -1.41  1.41  0.00
G_7-   2.00 -2.00 -1.41  1.41  0.00  0.00  0.00 -2.00  2.00  1.41 -1.41  0.00

        2s_v  2s_d
       -2s_v -2s_d
G_6+   0.00  0.00
G_7+   0.00  0.00
G_6-   0.00  0.00
G_7-   0.00  0.00

     the symmetry operations in each class and the name of the first element:

     E             1
                                                                 
     -E           -1
                                                                 
     2C4           7    8
                                                                 
     -2C4         -7   -8
                                                                 
      C2  -C2      2   -2
                                                                 
      2C2'-2C2'    3   -3    4   -4
                                                                 
     2C2''-2C2'    5   -5   -6    6
                                                                 
     i             9
                                                                 
     -i           -9
                                                                 
     2S4          15   16
                                                                 
     -2S4        -15  -16
                                                                 
      s_h -s_h    10  -10
                                                                 
      2s_v-2s_v   11  -11   12  -12
                                                                 
      2s_d-2s_d   13  -13  -14   14
                                                                 

     Band symmetry, D_4h(4/mmm) double point group:

     e(  1 -  6) =    -77.89489  eV     6   --> G_7+  M_7+     
     e(  1 -  6) =    -77.89489  eV     6   --> G_6-  M_6-     
     e(  1 -  6) =    -77.89489  eV     6   --> G_7-  M_7-     
     e(  7 -  8) =    -43.19296  eV     2   --> G_6+  M_6+     
     e(  9 - 10) =    -43.19261  eV     2   --> G_7-  M_7-     
     e( 11 - 12) =    -43.19244  eV     2   --> G_7+  M_7+     
     e( 13 - 14) =    -28.32828  eV     2   --> G_6+  M_6+     
     e( 15 - 16) =    -28.29965  eV     2   --> G_7+  M_7+     
     e( 17 - 18) =    -28.27144  eV     2   --> G_6-  M_6-     
     e( 19 - 20) =    -28.23824  eV     2   --> G_7-  M_7-     
     e( 21 - 22) =    -28.20817  eV     2   --> G_7+  M_7+     
     e( 23 - 24) =    -28.18214  eV     2   --> G_6+  M_6+     
     e( 25 - 26) =      1.59728  eV     2   --> G_6+  M_6+     
     e( 27 - 28) =      1.59985  eV     2   --> G_7+  M_7+     
     e( 29 - 30) =      4.10278  eV     2   --> G_7+  M_7+     
     e( 31 - 32) =      4.13221  eV     2   --> G_6+  M_6+     
     e( 33 - 34) =      4.18727  eV     2   --> G_7+  M_7+     
     e( 35 - 36) =     10.70575  eV     2   --> G_6+  M_6+     
     e( 37 - 38) =     13.76223  eV     2   --> G_6-  M_6-     
     e( 39 - 40) =     13.87224  eV     2   --> G_7-  M_7-     
     e( 41 - 42) =     14.95297  eV     2   --> G_6-  M_6-     
     e( 43 - 44) =     15.72769  eV     2   --> G_7-  M_7-     
     e( 45 - 46) =     15.82757  eV     2   --> G_6-  M_6-     
     e( 47 - 48) =     15.88475  eV     2   --> G_7+  M_7+     
     e( 49 - 50) =     15.97934  eV     2   --> G_7-  M_7-     
     e( 51 - 52) =     16.67134  eV     2   --> G_7+  M_7+     
     e( 53 - 54) =     16.80855  eV     2   --> G_6+  M_6+     
     e( 55 - 56) =     17.58934  eV     2   --> G_6-  M_6-     
     e( 57 - 58) =     17.71893  eV     2   --> G_7-  M_7-     
     e( 59 - 60) =     17.79704  eV     2   --> G_6+  M_6+     
     e( 61 - 62) =     18.21294  eV     2   --> G_7+  M_7+     
     e( 63 - 64) =     18.41801  eV     2   --> G_7-  M_7-     
     e( 65 - 66) =     18.53701  eV     2   --> G_6-  M_6-     
     e( 67 - 68) =     18.89511  eV     2   --> G_6+  M_6+     
     e( 69 - 70) =     20.93782  eV     2   --> G_7-  M_7-     
     e( 71 - 72) =     20.98899  eV     2   --> G_6-  M_6-     
     e( 73 - 74) =     24.63961  eV     2   --> G_6+  M_6+     
     e( 75 - 76) =     25.98992  eV     2   --> G_6-  M_6-     
     e( 77 - 78) =     27.50533  eV     2   --> G_7-  M_7-     
     e( 79 - 80) =     27.51158  eV     2   --> G_6-  M_6-     
     e( 81 - 82) =     28.30080  eV     2   --> G_7+  M_7+     

 **************************************************************************
 
     BANDS        :   9m59.63s CPU  10m 6.66s WALL

 
   This run was terminated on:  21:15:56  29Nov2020            

=------------------------------------------------------------------------------=
   JOB DONE.
=------------------------------------------------------------------------------=
