mpijob CMD    : mpirun -f /tmp/mpiexec.params.k050801.22640
mpijob PARAMS : -d /home/k0508/k050801/research/dft/qeirreps/PbPt3_test r1i0n18 24
        omplace -nt 1 "/home/k0508/k050801/research/dft/qe-6.2/bin/pw.x"

SGI MPT Placement option
--------------------------
omplace -nt 1

Node   MPI
------------
r1i0n18 24


     Program PWSCF v.6.2 (svn rev. 13949:13950) starts on 15Apr2020 at 16:25:46 

     This program is part of the open-source Quantum ESPRESSO suite
     for quantum simulation of materials; please cite
         "P. Giannozzi et al., J. Phys.:Condens. Matter 21 395502 (2009);
         "P. Giannozzi et al., J. Phys.:Condens. Matter 29 465901 (2017);
          URL http://www.quantum-espresso.org", 
     in publications or presentations arising from this work. More details at
     http://www.quantum-espresso.org/quote

     Parallel version (MPI), running on    24 processors

     MPI processes distributed on     1 nodes
     R & G space division:  proc/nbgrp/npool/nimage =      24
     Waiting for input...
     Reading input from standard input

     Current dimensions of program PWSCF are:
     Max number of different atomic species (ntypx) = 10
     Max number of k-points (npk) =  40000
     Max angular momentum in pseudopotentials (lmaxx) =  3

     Subspace diagonalization in iterative solution of the eigenvalue problem:
     a serial algorithm will be used

 
     Parallelization info
     --------------------
     sticks:   dense  smooth     PW     G-vecs:    dense   smooth      PW
     Min          80      80     23                 2674     2674     407
     Max          81      81     24                 2679     2679     410
     Sum        1941    1941    553                64229    64229    9795
 


     bravais-lattice index     =            0
     lattice parameter (alat)  =       7.8085  a.u.
     unit-cell volume          =     476.1138 (a.u.)^3
     number of atoms/cell      =            4
     number of atomic types    =            2
     number of electrons       =        68.00
     number of Kohn-Sham states=           82
     kinetic-energy cutoff     =     100.0000  Ry
     charge density cutoff     =     400.0000  Ry
     convergence threshold     =      1.0E-08
     mixing beta               =       0.3000
     number of iterations used =            8  plain     mixing
     Exchange-correlation      = PBE ( 1  4  3  4 0 0)
     Non magnetic calculation with spin-orbit


     celldm(1)=   7.808548  celldm(2)=   0.000000  celldm(3)=   0.000000
     celldm(4)=   0.000000  celldm(5)=   0.000000  celldm(6)=   0.000000

     crystal axes: (cart. coord. in units of alat)
               a(1) = (   1.000000   0.000000   0.000000 )  
               a(2) = (   0.000000   1.000000   0.000000 )  
               a(3) = (   0.000000   0.000000   1.000000 )  

     reciprocal axes: (cart. coord. in units 2 pi/alat)
               b(1) = (  1.000000  0.000000  0.000000 )  
               b(2) = (  0.000000  1.000000  0.000000 )  
               b(3) = (  0.000000  0.000000  1.000000 )  


     PseudoPot. # 1 for Pt read from file:
     ~/research/dft/pseudo/soc/nc-fr-04_pbe_standard/Pt.upf
     MD5 check sum: Not computed, couldn't open file
     Pseudo is Norm-conserving + core correction, Zval = 18.0
     Generated using ONCVPSP code by D. R. Hamann
     Using radial grid of 1374 points, 14 beta functions with: 
                l(1) =   0
                l(2) =   0
                l(3) =   1
                l(4) =   1
                l(5) =   1
                l(6) =   1
                l(7) =   2
                l(8) =   2
                l(9) =   2
               l(10) =   2
               l(11) =   3
               l(12) =   3
               l(13) =   3
               l(14) =   3

     PseudoPot. # 2 for Pb read from file:
     ~/research/dft/pseudo/soc/nc-fr-04_pbe_standard/Pb.upf
     MD5 check sum: Not computed, couldn't open file
     Pseudo is Norm-conserving + core correction, Zval = 14.0
     Generated using ONCVPSP code by D. R. Hamann
     Using radial grid of 1782 points, 10 beta functions with: 
                l(1) =   0
                l(2) =   0
                l(3) =   1
                l(4) =   1
                l(5) =   1
                l(6) =   1
                l(7) =   2
                l(8) =   2
                l(9) =   2
               l(10) =   2

     atomic species   valence    mass     pseudopotential
        Pt            18.00   195.08400     Pt( 1.00)
        Pb            14.00   207.20000     Pb( 1.00)

     48 Sym. Ops., with inversion, found



   Cartesian axes

     site n.     atom                  positions (alat units)
         1           Pt  tau(   1) = (   0.0000000   0.5000000   0.5000000  )
         2           Pt  tau(   2) = (   0.5000000   0.0000000   0.5000000  )
         3           Pt  tau(   3) = (   0.5000000   0.5000000   0.0000000  )
         4           Pb  tau(   4) = (   0.0000000   0.0000000   0.0000000  )

     number of k points=    35  Methfessel-Paxton smearing, width (Ry)=  0.0100
                       cart. coord. in units 2pi/alat
        k(    1) = (   0.0000000   0.0000000   0.0000000), wk =   0.0019531
        k(    2) = (   0.0000000   0.0000000   0.1250000), wk =   0.0117188
        k(    3) = (   0.0000000   0.0000000   0.2500000), wk =   0.0117188
        k(    4) = (   0.0000000   0.0000000   0.3750000), wk =   0.0117188
        k(    5) = (   0.0000000   0.0000000  -0.5000000), wk =   0.0058594
        k(    6) = (   0.0000000   0.1250000   0.1250000), wk =   0.0234375
        k(    7) = (   0.0000000   0.1250000   0.2500000), wk =   0.0468750
        k(    8) = (   0.0000000   0.1250000   0.3750000), wk =   0.0468750
        k(    9) = (   0.0000000   0.1250000  -0.5000000), wk =   0.0234375
        k(   10) = (   0.0000000   0.2500000   0.2500000), wk =   0.0234375
        k(   11) = (   0.0000000   0.2500000   0.3750000), wk =   0.0468750
        k(   12) = (   0.0000000   0.2500000  -0.5000000), wk =   0.0234375
        k(   13) = (   0.0000000   0.3750000   0.3750000), wk =   0.0234375
        k(   14) = (   0.0000000   0.3750000  -0.5000000), wk =   0.0234375
        k(   15) = (   0.0000000  -0.5000000  -0.5000000), wk =   0.0058594
        k(   16) = (   0.1250000   0.1250000   0.1250000), wk =   0.0156250
        k(   17) = (   0.1250000   0.1250000   0.2500000), wk =   0.0468750
        k(   18) = (   0.1250000   0.1250000   0.3750000), wk =   0.0468750
        k(   19) = (   0.1250000   0.1250000  -0.5000000), wk =   0.0234375
        k(   20) = (   0.1250000   0.2500000   0.2500000), wk =   0.0468750
        k(   21) = (   0.1250000   0.2500000   0.3750000), wk =   0.0937500
        k(   22) = (   0.1250000   0.2500000  -0.5000000), wk =   0.0468750
        k(   23) = (   0.1250000   0.3750000   0.3750000), wk =   0.0468750
        k(   24) = (   0.1250000   0.3750000  -0.5000000), wk =   0.0468750
        k(   25) = (   0.1250000  -0.5000000  -0.5000000), wk =   0.0117188
        k(   26) = (   0.2500000   0.2500000   0.2500000), wk =   0.0156250
        k(   27) = (   0.2500000   0.2500000   0.3750000), wk =   0.0468750
        k(   28) = (   0.2500000   0.2500000  -0.5000000), wk =   0.0234375
        k(   29) = (   0.2500000   0.3750000   0.3750000), wk =   0.0468750
        k(   30) = (   0.2500000   0.3750000  -0.5000000), wk =   0.0468750
        k(   31) = (   0.2500000  -0.5000000  -0.5000000), wk =   0.0117188
        k(   32) = (   0.3750000   0.3750000   0.3750000), wk =   0.0156250
        k(   33) = (   0.3750000   0.3750000  -0.5000000), wk =   0.0234375
        k(   34) = (   0.3750000  -0.5000000  -0.5000000), wk =   0.0117188
        k(   35) = (  -0.5000000  -0.5000000  -0.5000000), wk =   0.0019531

     Dense  grid:    64229 G-vectors     FFT dimensions: (  50,  50,  50)

     Estimated max dynamical RAM per process >      76.42 MB

     Estimated total dynamical RAM >       1.79 GB

     Initial potential from superposition of free atoms

     starting charge   67.99697, renormalised to   68.00000
     Starting wfc are   78 randomized atomic wfcs +    4 random wfc

     total cpu time spent up to now is        4.2 secs

     Self-consistent Calculation

     iteration #  1     ecut=   100.00 Ry     beta= 0.30
     Davidson diagonalization with overlap
     ethr =  1.00E-02,  avg # of iterations =  3.2

     Threshold (ethr) on eigenvalues was too large:
     Diagonalizing with lowered threshold

     Davidson diagonalization with overlap
     ethr =  2.65E-04,  avg # of iterations =  1.8

     total cpu time spent up to now is       22.6 secs

     total energy              =    -925.34965728 Ry
     Harris-Foulkes estimate   =    -925.41550492 Ry
     estimated scf accuracy    <       0.18198202 Ry

     iteration #  2     ecut=   100.00 Ry     beta= 0.30
     Davidson diagonalization with overlap
     ethr =  2.68E-04,  avg # of iterations =  2.0

     total cpu time spent up to now is       31.4 secs

     total energy              =    -925.36288308 Ry
     Harris-Foulkes estimate   =    -925.36951062 Ry
     estimated scf accuracy    <       0.02202810 Ry

     iteration #  3     ecut=   100.00 Ry     beta= 0.30
     Davidson diagonalization with overlap
     ethr =  3.24E-05,  avg # of iterations =  1.9

     total cpu time spent up to now is       39.5 secs

     total energy              =    -925.36321079 Ry
     Harris-Foulkes estimate   =    -925.36430911 Ry
     estimated scf accuracy    <       0.00478068 Ry

     iteration #  4     ecut=   100.00 Ry     beta= 0.30
     Davidson diagonalization with overlap
     ethr =  7.03E-06,  avg # of iterations =  2.1

     total cpu time spent up to now is       48.0 secs

     total energy              =    -925.36350965 Ry
     Harris-Foulkes estimate   =    -925.36362123 Ry
     estimated scf accuracy    <       0.00063035 Ry

     iteration #  5     ecut=   100.00 Ry     beta= 0.30
     Davidson diagonalization with overlap
     ethr =  9.27E-07,  avg # of iterations =  2.1

     total cpu time spent up to now is       56.2 secs

     total energy              =    -925.36355340 Ry
     Harris-Foulkes estimate   =    -925.36355265 Ry
     estimated scf accuracy    <       0.00001454 Ry

     iteration #  6     ecut=   100.00 Ry     beta= 0.30
     Davidson diagonalization with overlap
     ethr =  2.14E-08,  avg # of iterations =  2.3

     total cpu time spent up to now is       66.0 secs

     total energy              =    -925.36355535 Ry
     Harris-Foulkes estimate   =    -925.36355641 Ry
     estimated scf accuracy    <       0.00000224 Ry

     iteration #  7     ecut=   100.00 Ry     beta= 0.30
     Davidson diagonalization with overlap
     ethr =  3.29E-09,  avg # of iterations =  2.0

     total cpu time spent up to now is       74.5 secs

     total energy              =    -925.36355571 Ry
     Harris-Foulkes estimate   =    -925.36355565 Ry
     estimated scf accuracy    <       0.00000026 Ry

     iteration #  8     ecut=   100.00 Ry     beta= 0.30
     Davidson diagonalization with overlap
     ethr =  3.89E-10,  avg # of iterations =  2.0

     total cpu time spent up to now is       83.8 secs

     total energy              =    -925.36355572 Ry
     Harris-Foulkes estimate   =    -925.36355576 Ry
     estimated scf accuracy    <       0.00000007 Ry

     iteration #  9     ecut=   100.00 Ry     beta= 0.30
     Davidson diagonalization with overlap
     ethr =  1.09E-10,  avg # of iterations =  2.0

     total cpu time spent up to now is       93.2 secs

     End of self-consistent calculation

          k = 0.0000 0.0000 0.0000 (  8121 PWs)   bands (ev):

   -77.9048 -77.9048 -77.8894 -77.8894 -77.8894 -77.8894 -43.2104 -43.2104
   -43.2104 -43.2104 -43.1553 -43.1553 -28.3550 -28.3550 -28.3179 -28.3179
   -28.3179 -28.3179 -28.2508 -28.2508 -28.1365 -28.1365 -28.1365 -28.1365
     1.5600   1.5600   1.5600   1.5600   4.0657   4.0657   4.0657   4.0657
     4.1008   4.1008   8.3085   8.3085  13.6601  13.6601  15.0841  15.0841
    15.0841  15.0841  15.1268  15.1268  15.1912  15.1912  15.1912  15.1912
    17.6526  17.6526  17.6526  17.6526  18.1657  18.1657  18.4368  18.4368
    19.0588  19.0588  19.0588  19.0588  19.4666  19.4666  19.4666  19.4666
    19.6856  19.6856  19.7937  19.7937  20.4098  20.4098  20.4098  20.4098
    21.5020  21.5020  25.8744  25.8744  25.8744  25.8744  27.4768  27.4768
    27.6313  27.6313

          k = 0.0000 0.0000 0.1250 (  8085 PWs)   bands (ev):

   -77.9043 -77.9043 -77.8899 -77.8899 -77.8894 -77.8894 -43.2104 -43.2104
   -43.2085 -43.2085 -43.1572 -43.1572 -28.3495 -28.3495 -28.3159 -28.3159
   -28.3142 -28.3142 -28.2519 -28.2519 -28.1447 -28.1447 -28.1395 -28.1395
     1.5628   1.5628   1.5663   1.5663   4.0704   4.0704   4.0785   4.0785
     4.1049   4.1049   8.4618   8.4618  13.7473  13.7473  15.0005  15.0005
    15.1253  15.1253  15.1546  15.1546  15.1680  15.1680  15.2982  15.2982
    17.1035  17.1035  17.4961  17.4961  17.9751  17.9751  18.2783  18.2783
    18.8189  18.8189  18.9419  18.9419  18.9749  18.9749  19.4609  19.4609
    19.6958  19.6958  20.0026  20.0026  20.6507  20.6507  20.8192  20.8192
    21.9776  21.9776  25.8107  25.8107  25.8419  25.8419  27.5420  27.5420
    27.8450  27.8450

          k = 0.0000 0.0000 0.2500 (  8049 PWs)   bands (ev):

   -77.9028 -77.9028 -77.8914 -77.8914 -77.8894 -77.8894 -43.2104 -43.2104
   -43.2034 -43.2034 -43.1624 -43.1624 -28.3385 -28.3385 -28.3056 -28.3056
   -28.3040 -28.3040 -28.2554 -28.2554 -28.1680 -28.1680 -28.1470 -28.1470
     1.5694   1.5694   1.5816   1.5816   4.0817   4.0817   4.1092   4.1092
     4.1149   4.1149   8.9019   8.9019  13.7721  13.7721  14.6146  14.6146
    15.2004  15.2004  15.2211  15.2211  15.2493  15.2493  15.6185  15.6185
    16.5231  16.5231  17.1740  17.1740  17.3417  17.3417  17.7758  17.7758
    18.5330  18.5330  18.7011  18.7011  18.7596  18.7596  19.0885  19.0885
    19.4312  19.4312  20.1137  20.1137  21.4780  21.4780  21.8841  21.8841
    21.9287  21.9287  25.6510  25.6510  26.6724  26.6724  27.0549  27.0549
    27.8830  27.8830

          k = 0.0000 0.0000 0.3750 (  8041 PWs)   bands (ev):

   -77.9009 -77.9009 -77.8933 -77.8933 -77.8894 -77.8894 -43.2105 -43.2105
   -43.1965 -43.1965 -43.1695 -43.1695 -28.3328 -28.3328 -28.2902 -28.2902
   -28.2791 -28.2791 -28.2619 -28.2619 -28.2022 -28.2022 -28.1551 -28.1551
     1.5761   1.5761   1.5968   1.5968   4.0928   4.0928   4.1251   4.1251
     4.1399   4.1399   9.5288   9.5288  12.9842  12.9842  14.7573  14.7573
    15.2471  15.2471  15.2906  15.2906  15.2983  15.2983  16.0347  16.0347
    16.3730  16.3730  16.8419  16.8419  17.0628  17.0628  17.6789  17.6789
    18.1506  18.1506  18.3035  18.3035  18.3431  18.3431  18.5088  18.5088
    19.2737  19.2737  20.1451  20.1451  21.3057  21.3057  22.6912  22.6912
    23.2990  23.2990  25.4810  25.4810  26.0969  26.0969  26.5639  26.5639
    27.9052  27.9052

          k = 0.0000 0.0000-0.5000 (  8008 PWs)   bands (ev):

   -77.8997 -77.8997 -77.8945 -77.8945 -77.8894 -77.8894 -43.2105 -43.2105
   -43.1921 -43.1921 -43.1739 -43.1739 -28.3316 -28.3316 -28.2803 -28.2803
   -28.2687 -28.2687 -28.2445 -28.2445 -28.2388 -28.2388 -28.1586 -28.1586
     1.5788   1.5788   1.6031   1.6031   4.0974   4.0974   4.1295   4.1295
     4.1527   4.1527   9.9255   9.9255  12.4229  12.4229  14.9394  14.9394
    15.2529  15.2529  15.3056  15.3056  15.3225  15.3225  16.2459  16.2459
    16.4744  16.4744  16.5933  16.5933  17.1467  17.1467  17.7140  17.7140
    18.0065  18.0065  18.0156  18.0156  18.0861  18.0861  18.1659  18.1659
    19.2352  19.2352  20.1569  20.1569  21.0758  21.0758  23.3733  23.3733
    24.5543  24.5543  24.9249  24.9249  25.4473  25.4473  25.9940  25.9940
    27.6966  27.6966

          k = 0.0000 0.1250 0.1250 (  8069 PWs)   bands (ev):

   -77.9038 -77.9038 -77.8901 -77.8901 -77.8897 -77.8897 -43.2095 -43.2095
   -43.2077 -43.2077 -43.1590 -43.1590 -28.3447 -28.3447 -28.3159 -28.3159
   -28.3093 -28.3093 -28.2520 -28.2520 -28.1534 -28.1534 -28.1414 -28.1414
     1.5658   1.5658   1.5714   1.5714   4.0772   4.0772   4.0873   4.0873
     4.1085   4.1085   8.6115   8.6115  13.8270  13.8270  15.0091  15.0091
    15.0749  15.0749  15.1757  15.1757  15.2468  15.2468  15.2986  15.2986
    16.7287  16.7287  17.3532  17.3532  17.8079  17.8079  18.2018  18.2018
    18.7325  18.7325  18.8511  18.8511  18.9355  18.9355  19.1818  19.1818
    19.4950  19.4950  20.0782  20.0782  20.5894  20.5894  21.2170  21.2170
    22.5548  22.5548  25.5112  25.5112  26.0736  26.0736  27.3851  27.3851
    27.8040  27.8040

          k = 0.0000 0.1250 0.2500 (  8046 PWs)   bands (ev):

   -77.9024 -77.9024 -77.8914 -77.8914 -77.8898 -77.8898 -43.2091 -43.2091
   -43.2032 -43.2032 -43.1641 -43.1641 -28.3347 -28.3347 -28.3103 -28.3103
   -28.2981 -28.2981 -28.2524 -28.2524 -28.1751 -28.1751 -28.1488 -28.1488
     1.5725   1.5725   1.5842   1.5842   4.0882   4.0882   4.1131   4.1131
     4.1181   4.1181   9.0394   9.0394  13.8409  13.8409  14.6804  14.6804
    15.0918  15.0918  15.1868  15.1868  15.4353  15.4353  15.5191  15.5191
    16.3553  16.3553  17.0992  17.0992  17.1836  17.1836  17.9073  17.9073
    18.4440  18.4440  18.5401  18.5401  18.7995  18.7995  19.0234  19.0234
    19.3062  19.3062  19.9233  19.9233  21.0148  21.0148  22.0804  22.0804
    22.6621  22.6621  25.3380  25.3380  26.5198  26.5198  27.2885  27.2885
    27.8599  27.8599

          k = 0.0000 0.1250 0.3750 (  8053 PWs)   bands (ev):

   -77.9005 -77.9005 -77.8933 -77.8933 -77.8898 -77.8898 -43.2091 -43.2091
   -43.1965 -43.1965 -43.1709 -43.1709 -28.3295 -28.3295 -28.2984 -28.2984
   -28.2792 -28.2792 -28.2516 -28.2516 -28.2055 -28.2055 -28.1577 -28.1577
     1.5789   1.5789   1.5972   1.5972   4.0992   4.0992   4.1233   4.1233
     4.1434   4.1434   9.6408   9.6408  13.1025  13.1025  14.8000  14.8000
    15.1511  15.1511  15.2017  15.2017  15.4513  15.4513  15.9202  15.9202
    16.3149  16.3149  16.6975  16.6975  17.0890  17.0890  17.7303  17.7303
    18.0229  18.0229  18.2166  18.2166  18.4476  18.4476  18.6482  18.6482
    19.2252  19.2252  19.8753  19.8753  21.0759  21.0759  22.7965  22.7965
    23.3459  23.3459  24.7986  24.7986  26.3457  26.3457  26.8412  26.8412
    28.4046  28.4046

          k = 0.0000 0.1250-0.5000 (  8032 PWs)   bands (ev):

   -77.8993 -77.8993 -77.8945 -77.8945 -77.8898 -77.8898 -43.2091 -43.2091
   -43.1922 -43.1922 -43.1753 -43.1753 -28.3284 -28.3284 -28.2928 -28.2928
   -28.2650 -28.2650 -28.2395 -28.2395 -28.2355 -28.2355 -28.1618 -28.1618
     1.5816   1.5816   1.6025   1.6025   4.1041   4.1041   4.1260   4.1260
     4.1552   4.1552  10.0121  10.0121  12.5807  12.5807  15.0143  15.0143
    15.1265  15.1265  15.2433  15.2433  15.3709  15.3709  16.1510  16.1510
    16.3379  16.3379  16.6592  16.6592  17.0510  17.0510  17.6662  17.6662
    17.8413  17.8413  18.1428  18.1428  18.1713  18.1713  18.4118  18.4118
    19.1889  19.1889  19.8744  19.8744  20.9328  20.9328  23.4662  23.4662
    23.6530  23.6530  24.7006  24.7006  25.7492  25.7492  26.6025  26.6025
    28.2856  28.2856

          k = 0.0000 0.2500 0.2500 (  8040 PWs)   bands (ev):

   -77.9011 -77.9011 -77.8920 -77.8920 -77.8905 -77.8905 -43.2065 -43.2065
   -43.2014 -43.2014 -43.1687 -43.1687 -28.3258 -28.3258 -28.3131 -28.3131
   -28.2902 -28.2902 -28.2441 -28.2441 -28.1931 -28.1931 -28.1552 -28.1552
     1.5794   1.5794   1.5909   1.5909   4.0991   4.0991   4.1208   4.1208
     4.1326   4.1326   9.4265   9.4265  13.8999  13.8999  14.6288  14.6288
    15.0492  15.0492  15.1020  15.1020  15.4796  15.4796  15.7229  15.7229
    16.0686  16.0686  16.7105  16.7105  17.1329  17.1329  17.9950  17.9950
    18.2916  18.2916  18.3780  18.3780  18.5230  18.5230  18.9102  18.9102
    19.0566  19.0566  19.6321  19.6321  20.9152  20.9152  22.3569  22.3569
    23.0007  23.0007  25.1820  25.1820  26.3462  26.3462  27.6886  27.6886
    28.2329  28.2329

          k = 0.0000 0.2500 0.3750 (  8038 PWs)   bands (ev):

   -77.8993 -77.8993 -77.8934 -77.8934 -77.8908 -77.8908 -43.2054 -43.2054
   -43.1962 -43.1962 -43.1751 -43.1751 -28.3214 -28.3214 -28.3100 -28.3100
   -28.2776 -28.2776 -28.2348 -28.2348 -28.2151 -28.2151 -28.1646 -28.1646
     1.5857   1.5857   1.5981   1.5981   4.1087   4.1087   4.1220   4.1220
     4.1552   4.1552   9.9494   9.9494  13.4098  13.4098  14.5623  14.5623
    15.0805  15.0805  15.2643  15.2643  15.6561  15.6561  15.7496  15.7496
    16.1338  16.1338  16.4109  16.4109  17.2221  17.2221  17.7791  17.7791
    17.9542  17.9542  18.1764  18.1764  18.3421  18.3421  18.7048  18.7048
    19.0389  19.0389  19.4144  19.4144  20.9038  20.9038  21.9604  21.9604
    23.9415  23.9415  24.7317  24.7317  26.6373  26.6373  27.6106  27.6106
    28.2103  28.2103

          k = 0.0000 0.2500-0.5000 (  8060 PWs)   bands (ev):

   -77.8981 -77.8981 -77.8945 -77.8945 -77.8909 -77.8909 -43.2052 -43.2052
   -43.1923 -43.1923 -43.1793 -43.1793 -28.3213 -28.3213 -28.3076 -28.3076
   -28.2652 -28.2652 -28.2387 -28.2387 -28.2216 -28.2216 -28.1699 -28.1699
     1.5882   1.5882   1.6012   1.6012   4.1153   4.1153   4.1194   4.1194
     4.1651   4.1651  10.2507  10.2507  13.0104  13.0104  14.6189  14.6189
    15.1123  15.1123  15.3362  15.3362  15.5371  15.5371  15.9488  15.9488
    16.1288  16.1288  16.7120  16.7120  16.9282  16.9282  17.6386  17.6386
    17.7810  17.7810  18.1564  18.1564  18.2716  18.2716  18.5828  18.5828
    19.0681  19.0681  19.3344  19.3344  20.7835  20.7835  21.9624  21.9624
    24.0447  24.0447  25.0460  25.0460  26.6428  26.6428  26.9460  26.9460
    28.6934  28.6934

          k = 0.0000 0.3750 0.3750 (  8022 PWs)   bands (ev):

   -77.8977 -77.8977 -77.8938 -77.8938 -77.8921 -77.8921 -43.2009 -43.2009
   -43.1950 -43.1950 -43.1809 -43.1809 -28.3216 -28.3216 -28.3088 -28.3088
   -28.2730 -28.2730 -28.2299 -28.2299 -28.2183 -28.2183 -28.1733 -28.1733
     1.5922   1.5922   1.5991   1.5991   4.1079   4.1079   4.1266   4.1266
     4.1718   4.1718  10.3433  10.3433  13.6666  13.6666  14.0944  14.0944
    15.0248  15.0248  15.5435  15.5435  15.7126  15.7126  15.7925  15.7925
    15.9723  15.9723  16.4130  16.4130  17.2195  17.2195  17.6664  17.6664
    17.9066  17.9066  17.9909  17.9909  18.2415  18.2415  18.6184  18.6184
    18.7881  18.7881  19.0951  19.0951  20.9606  20.9606  21.2109  21.2109
    24.4375  24.4375  25.1818  25.1818  26.9652  26.9652  27.6649  27.6649
    28.5822  28.5822

          k = 0.0000 0.3750-0.5000 (  8034 PWs)   bands (ev):

   -77.8965 -77.8965 -77.8945 -77.8945 -77.8926 -77.8926 -43.1993 -43.1993
   -43.1923 -43.1923 -43.1853 -43.1853 -28.3244 -28.3244 -28.3050 -28.3050
   -28.2685 -28.2685 -28.2382 -28.2382 -28.2113 -28.2113 -28.1783 -28.1783
     1.5947   1.5947   1.5998   1.5998   4.1064   4.1064   4.1287   4.1287
     4.1798   4.1798  10.5514  10.5514  13.5417  13.5417  14.0793  14.0793
    15.0007  15.0007  15.6448  15.6448  15.7348  15.7348  15.8568  15.8568
    15.9518  15.9518  16.7224  16.7224  16.8557  16.8557  17.6372  17.6372
    17.7598  17.7598  17.9216  17.9216  18.2724  18.2724  18.4825  18.4825
    18.7356  18.7356  18.9925  18.9925  20.8726  20.8726  21.1463  21.1463
    24.4283  24.4283  25.7006  25.7006  27.1291  27.1291  27.7873  27.7873
    27.8946  27.8946

          k = 0.0000-0.5000-0.5000 (  8020 PWs)   bands (ev):

   -77.8945 -77.8945 -77.8945 -77.8945 -77.8945 -77.8945 -43.1926 -43.1926
   -43.1923 -43.1923 -43.1921 -43.1921 -28.3280 -28.3280 -28.2994 -28.2994
   -28.2712 -28.2712 -28.2379 -28.2379 -28.2079 -28.2079 -28.1818 -28.1818
     1.5969   1.5969   1.5995   1.5995   4.1025   4.1025   4.1319   4.1319
     4.1869   4.1869  10.7057  10.7057  13.7623  13.7623  13.8723  13.8723
    14.9531  14.9531  15.7278  15.7278  15.8277  15.8277  15.8848  15.8848
    15.9795  15.9795  16.6714  16.6714  16.8087  16.8087  17.5895  17.5895
    17.7191  17.7191  17.7972  17.7972  18.2131  18.2131  18.4182  18.4182
    18.5372  18.5372  18.8952  18.8952  20.9380  20.9380  20.9891  20.9891
    24.6396  24.6396  25.9899  25.9899  27.5054  27.5054  27.5116  27.5116
    28.3008  28.3008

          k = 0.1250 0.1250 0.1250 (  8079 PWs)   bands (ev):

   -77.9033 -77.9033 -77.8901 -77.8901 -77.8901 -77.8901 -43.2078 -43.2078
   -43.2077 -43.2077 -43.1608 -43.1608 -28.3410 -28.3410 -28.3155 -28.3155
   -28.3051 -28.3051 -28.2514 -28.2514 -28.1620 -28.1620 -28.1428 -28.1428
     1.5682   1.5682   1.5761   1.5761   4.0829   4.0829   4.0950   4.0950
     4.1119   4.1119   8.7574   8.7574  13.8850  13.8850  14.9813  14.9813
    15.1241  15.1241  15.1384  15.1384  15.3225  15.3225  15.3266  15.3266
    16.3943  16.3943  17.4447  17.4447  17.4930  17.4930  18.2876  18.2876
    18.4623  18.4623  18.8289  18.8289  18.9512  18.9512  18.9512  18.9512
    19.2918  19.2918  20.1730  20.1730  20.6112  20.6112  21.2196  21.2196
    23.2799  23.2799  25.3338  25.3338  25.9551  25.9551  27.1170  27.1170
    28.0147  28.0147

          k = 0.1250 0.1250 0.2500 (  8046 PWs)   bands (ev):

   -77.9019 -77.9019 -77.8915 -77.8915 -77.8901 -77.8901 -43.2078 -43.2078
   -43.2030 -43.2030 -43.1657 -43.1657 -28.3334 -28.3334 -28.3113 -28.3113
   -28.2943 -28.2943 -28.2492 -28.2492 -28.1825 -28.1825 -28.1493 -28.1493
     1.5743   1.5743   1.5870   1.5870   4.0928   4.0928   4.1157   4.1157
     4.1221   4.1221   9.1715   9.1715  13.8512  13.8512  14.7517  14.7517
    14.9952  14.9952  15.3615  15.3615  15.4475  15.4475  15.4726  15.4726
    16.1794  16.1794  17.0643  17.0643  17.1344  17.1344  17.9181  17.9181
    18.3274  18.3274  18.4575  18.4575  18.8270  18.8270  18.9129  18.9129
    19.1204  19.1204  19.9732  19.9732  20.9923  20.9923  21.6847  21.6847
    23.4208  23.4208  25.0383  25.0383  26.3668  26.3668  27.0493  27.0493
    27.8812  27.8812

          k = 0.1250 0.1250 0.3750 (  8043 PWs)   bands (ev):

   -77.9001 -77.9001 -77.8933 -77.8933 -77.8901 -77.8901 -43.2078 -43.2078
   -43.1964 -43.1964 -43.1723 -43.1723 -28.3291 -28.3291 -28.3029 -28.3029
   -28.2776 -28.2776 -28.2454 -28.2454 -28.2089 -28.2089 -28.1586 -28.1586
     1.5807   1.5807   1.5976   1.5976   4.1038   4.1038   4.1217   4.1217
     4.1460   4.1460   9.7442   9.7442  13.1976  13.1976  14.7116  14.7116
    15.0921  15.0921  15.4190  15.4190  15.4675  15.4675  15.8391  15.8391
    16.2580  16.2580  16.6480  16.6480  16.9833  16.9833  17.7546  17.7546
    18.0441  18.0441  18.1673  18.1673  18.5420  18.5420  18.6387  18.6387
    19.1168  19.1168  19.7799  19.7799  21.0530  21.0530  22.4222  22.4222
    23.5596  23.5596  24.3495  24.3495  26.0439  26.0439  27.8885  27.8885
    28.4164  28.4164

          k = 0.1250 0.1250-0.5000 (  8024 PWs)   bands (ev):

   -77.8989 -77.8989 -77.8945 -77.8945 -77.8901 -77.8901 -43.2079 -43.2079
   -43.1922 -43.1922 -43.1766 -43.1766 -28.3281 -28.3281 -28.2989 -28.2989
   -28.2638 -28.2638 -28.2424 -28.2424 -28.2269 -28.2269 -28.1633 -28.1633
     1.5834   1.5834   1.6020   1.6020   4.1098   4.1098   4.1221   4.1221
     4.1566   4.1566  10.0875  10.0875  12.7313  12.7313  14.7747  14.7747
    15.1284  15.1284  15.4091  15.4091  15.4987  15.4987  16.1166  16.1166
    16.2422  16.2422  16.5461  16.5461  16.9211  16.9211  17.7503  17.7503
    17.9386  17.9386  18.1079  18.1079  18.2756  18.2756  18.4672  18.4672
    19.0971  19.0971  19.7197  19.7197  20.9316  20.9316  22.9625  22.9625
    23.7349  23.7349  24.0540  24.0540  25.6030  25.6030  28.1771  28.1771
    28.7663  28.7663

          k = 0.1250 0.2500 0.2500 (  8057 PWs)   bands (ev):

   -77.9007 -77.9007 -77.8920 -77.8920 -77.8909 -77.8909 -43.2052 -43.2052
   -43.2014 -43.2014 -43.1701 -43.1701 -28.3310 -28.3310 -28.3108 -28.3108
   -28.2861 -28.2861 -28.2405 -28.2405 -28.1997 -28.1997 -28.1537 -28.1537
     1.5793   1.5793   1.5931   1.5931   4.0999   4.0999   4.1227   4.1227
     4.1351   4.1351   9.5393   9.5393  13.7775  13.7775  14.7341  14.7341
    15.0756  15.0756  15.2775  15.2775  15.4646  15.4646  15.7390  15.7390
    16.0205  16.0205  16.6901  16.6901  17.0520  17.0520  17.9089  17.9089
    18.1700  18.1700  18.3339  18.3339  18.5662  18.5662  18.8084  18.8084
    18.9663  18.9663  19.8697  19.8697  20.9185  20.9185  21.9203  21.9203
    23.1310  23.1310  25.4087  25.4087  25.7559  25.7559  26.9228  26.9228
    28.9654  28.9654

          k = 0.1250 0.2500 0.3750 (  8033 PWs)   bands (ev):

   -77.8990 -77.8990 -77.8934 -77.8934 -77.8911 -77.8911 -43.2044 -43.2044
   -43.1962 -43.1962 -43.1762 -43.1762 -28.3297 -28.3297 -28.3081 -28.3081
   -28.2745 -28.2745 -28.2353 -28.2353 -28.2141 -28.2141 -28.1621 -28.1621
     1.5850   1.5850   1.5985   1.5985   4.1067   4.1067   4.1239   4.1239
     4.1546   4.1546  10.0222  10.0222  13.4258  13.4258  14.4726  14.4726
    15.2716  15.2716  15.3893  15.3893  15.6274  15.6274  15.8034  15.8034
    16.1260  16.1260  16.4013  16.4013  16.9650  16.9650  17.7811  17.7811
    18.0351  18.0351  18.1615  18.1615  18.3748  18.3748  18.6933  18.6933
    18.9203  18.9203  19.6197  19.6197  20.9288  20.9288  22.1280  22.1280
    22.6806  22.6806  24.8049  24.8049  26.5594  26.5594  27.1290  27.1290
    29.1484  29.1484

          k = 0.1250 0.2500-0.5000 (  8036 PWs)   bands (ev):

   -77.8979 -77.8979 -77.8945 -77.8945 -77.8912 -77.8912 -43.2042 -43.2042
   -43.1923 -43.1923 -43.1803 -43.1803 -28.3294 -28.3294 -28.3066 -28.3066
   -28.2639 -28.2639 -28.2445 -28.2445 -28.2127 -28.2127 -28.1675 -28.1675
     1.5876   1.5876   1.6004   1.6004   4.1109   4.1109   4.1225   4.1225
     4.1632   4.1632  10.2885  10.2885  13.1410  13.1410  14.3907  14.3907
    15.3177  15.3177  15.4375  15.4375  15.7269  15.7269  15.9329  15.9329
    16.0774  16.0774  16.4993  16.4993  16.7885  16.7885  17.7990  17.7990
    17.9318  17.9318  18.0953  18.0953  18.3293  18.3293  18.5703  18.5703
    18.9145  18.9145  19.5042  19.5042  20.8596  20.8596  22.1110  22.1110
    22.7242  22.7242  24.5554  24.5554  26.6167  26.6167  27.8533  27.8533
    29.0591  29.0592

          k = 0.1250 0.3750 0.3750 (  8035 PWs)   bands (ev):

   -77.8975 -77.8975 -77.8938 -77.8938 -77.8923 -77.8923 -43.2002 -43.2002
   -43.1950 -43.1950 -43.1817 -43.1817 -28.3327 -28.3327 -28.3080 -28.3080
   -28.2697 -28.2697 -28.2395 -28.2395 -28.2068 -28.2068 -28.1684 -28.1684
     1.5898   1.5898   1.5987   1.5987   4.1024   4.1024   4.1294   4.1294
     4.1676   4.1676  10.3591  10.3591  13.6158  13.6158  14.2110  14.2110
    15.2569  15.2569  15.4486  15.4486  15.6352  15.6352  15.9294  15.9294
    16.1266  16.1266  16.3947  16.3947  16.9211  16.9211  17.6290  17.6290
    17.9098  17.9098  18.1592  18.1592  18.2731  18.2731  18.7059  18.7059
    18.7797  18.7797  19.3229  19.3229  20.8871  20.8871  21.3160  21.3160
    22.8499  22.8499  25.6452  25.6452  25.8580  25.8580  27.3372  27.3372
    28.7672  28.7672

          k = 0.1250 0.3750-0.5000 (  8050 PWs)   bands (ev):

   -77.8963 -77.8963 -77.8945 -77.8945 -77.8927 -77.8927 -43.1988 -43.1988
   -43.1924 -43.1924 -43.1858 -43.1858 -28.3343 -28.3343 -28.3070 -28.3070
   -28.2659 -28.2659 -28.2456 -28.2456 -28.1998 -28.1998 -28.1731 -28.1731
     1.5922   1.5922   1.5984   1.5984   4.1002   4.1002   4.1311   4.1311
     4.1740   4.1740  10.5258  10.5258  13.6548  13.6548  14.0774  14.0774
    15.2581  15.2581  15.4142  15.4142  15.7320  15.7320  15.9163  15.9163
    16.2004  16.2004  16.5824  16.5824  16.7765  16.7765  17.5380  17.5380
    17.9256  17.9256  18.0592  18.0592  18.2813  18.2813  18.5480  18.5480
    18.7696  18.7696  19.2002  19.2002  20.8342  20.8342  21.0954  21.0954
    23.0576  23.0576  25.2784  25.2784  26.3493  26.3493  27.6217  27.6217
    28.0839  28.0839

          k = 0.1250-0.5000-0.5000 (  8032 PWs)   bands (ev):

   -77.8945 -77.8945 -77.8945 -77.8945 -77.8945 -77.8945 -43.1926 -43.1926
   -43.1924 -43.1924 -43.1921 -43.1921 -28.3370 -28.3370 -28.3058 -28.3058
   -28.2672 -28.2672 -28.2460 -28.2460 -28.1935 -28.1935 -28.1767 -28.1767
     1.5947   1.5947   1.5968   1.5968   4.0958   4.0958   4.1338   4.1338
     4.1796   4.1796  10.6390  10.6390  13.8882  13.8882  13.9883  13.9883
    15.1577  15.1577  15.3004  15.3004  15.8259  15.8259  15.8871  15.8871
    16.3683  16.3683  16.7235  16.7235  16.7406  16.7406  17.3924  17.3924
    17.8886  17.8886  17.9936  17.9936  18.3115  18.3115  18.4528  18.4528
    18.6103  18.6103  19.0366  19.0366  20.8529  20.8529  20.8679  20.8679
    23.3785  23.3785  25.5399  25.5399  25.8922  25.8922  27.4488  27.4488
    28.1288  28.1288

          k = 0.2500 0.2500 0.2500 (  8024 PWs)   bands (ev):

   -77.8996 -77.8996 -77.8920 -77.8920 -77.8920 -77.8920 -43.2015 -43.2015
   -43.2013 -43.2013 -43.1739 -43.1739 -28.3376 -28.3376 -28.3099 -28.3099
   -28.2777 -28.2777 -28.2340 -28.2340 -28.2102 -28.2102 -28.1539 -28.1539
     1.5809   1.5809   1.5967   1.5967   4.0990   4.0990   4.1297   4.1297
     4.1420   4.1420   9.8411   9.8411  13.5736  13.5736  14.9745  14.9745
    15.0700  15.0700  15.2671  15.2671  15.7514  15.7514  15.7809  15.7809
    16.0485  16.0485  16.5985  16.5985  16.7103  16.7103  17.8825  17.8825
    17.9486  17.9486  18.2274  18.2274  18.5483  18.5483  18.7350  18.7350
    18.9160  18.9160  20.0546  20.0546  20.8934  20.8934  21.3307  21.3307
    23.5753  23.5753  24.3226  24.3226  24.7180  24.7180  28.1407  28.1407
    29.3863  29.3863

          k = 0.2500 0.2500 0.3750 (  8039 PWs)   bands (ev):

   -77.8981 -77.8981 -77.8935 -77.8935 -77.8919 -77.8919 -43.2015 -43.2015
   -43.1961 -43.1961 -43.1794 -43.1794 -28.3410 -28.3410 -28.3103 -28.3103
   -28.2688 -28.2688 -28.2414 -28.2414 -28.2042 -28.2042 -28.1588 -28.1588
     1.5844   1.5844   1.5981   1.5981   4.0979   4.0979   4.1314   4.1314
     4.1546   4.1546  10.2018  10.2018  13.4717  13.4717  14.5120  14.5120
    15.3610  15.3610  15.4581  15.4581  15.7931  15.7931  15.9113  15.9113
    16.2078  16.2078  16.3634  16.3634  16.6928  16.6928  17.6796  17.6796
    17.9367  17.9367  18.2587  18.2587  18.3925  18.3925  18.7420  18.7420
    18.8708  18.8708  19.8378  19.8378  20.8983  20.8983  21.3990  21.3990
    22.4968  22.4968  23.6715  23.6715  25.4320  25.4320  28.2112  28.2112
    28.9126  28.9126

          k = 0.2500 0.2500-0.5000 (  8036 PWs)   bands (ev):

   -77.8971 -77.8971 -77.8945 -77.8945 -77.8919 -77.8919 -43.2015 -43.2015
   -43.1924 -43.1924 -43.1832 -43.1832 -28.3419 -28.3419 -28.3107 -28.3107
   -28.2617 -28.2617 -28.2508 -28.2508 -28.1967 -28.1967 -28.1633 -28.1633
     1.5867   1.5867   1.5979   1.5979   4.0978   4.0978   4.1309   4.1309
     4.1608   4.1608  10.3770  10.3770  13.4893  13.4893  14.1950  14.1950
    15.4377  15.4377  15.6191  15.6191  15.7965  15.7965  15.9961  15.9961
    16.1865  16.1865  16.3276  16.3276  16.7140  16.7140  17.6029  17.6029
    18.0353  18.0353  18.2657  18.2657  18.3584  18.3584  18.6307  18.6307
    18.8996  18.8996  19.6280  19.6280  21.0102  21.0102  21.5037  21.5037
    21.9384  21.9384  23.3767  23.3767  26.1644  26.1644  27.6652  27.6652
    28.6892  28.6892

          k = 0.2500 0.3750 0.3750 (  8029 PWs)   bands (ev):

   -77.8969 -77.8969 -77.8938 -77.8938 -77.8929 -77.8929 -43.1982 -43.1982
   -43.1951 -43.1951 -43.1839 -43.1839 -28.3485 -28.3485 -28.3150 -28.3150
   -28.2639 -28.2639 -28.2491 -28.2491 -28.1894 -28.1894 -28.1595 -28.1595
     1.5856   1.5856   1.5959   1.5959   4.0879   4.0879   4.1366   4.1366
     4.1589   4.1589  10.3846  10.3846  13.6461  13.6461  14.4973  14.4973
    15.1404  15.1404  15.6515  15.6515  15.8107  15.8107  15.9903  15.9903
    16.2898  16.2898  16.4786  16.4786  16.8484  16.8484  17.3985  17.3985
    17.9873  17.9873  18.2318  18.2318  18.4177  18.4177  18.7603  18.7603
    18.9136  18.9136  19.7160  19.7160  20.6212  20.6212  21.1545  21.1545
    21.7056  21.7056  24.1497  24.1497  24.4264  24.4264  27.0937  27.0937
    29.4931  29.4931

          k = 0.2500 0.3750-0.5000 (  8034 PWs)   bands (ev):

   -77.8959 -77.8959 -77.8945 -77.8945 -77.8931 -77.8931 -43.1974 -43.1974
   -43.1924 -43.1924 -43.1874 -43.1874 -28.3510 -28.3510 -28.3173 -28.3173
   -28.2613 -28.2613 -28.2530 -28.2530 -28.1810 -28.1810 -28.1623 -28.1623
     1.5871   1.5871   1.5939   1.5939   4.0837   4.0837   4.1374   4.1374
     4.1622   4.1622  10.4603  10.4603  13.9308  13.9308  14.1842  14.1842
    15.1428  15.1428  15.7270  15.7270  15.8184  15.8184  15.9902  15.9902
    16.3234  16.3234  16.5334  16.5334  17.0048  17.0048  17.3057  17.3057
    18.0801  18.0801  18.2280  18.2280  18.4166  18.4166  18.6358  18.6358
    18.9610  18.9610  19.5293  19.5293  20.6546  20.6546  20.8371  20.8371
    21.5765  21.5765  23.8492  23.8492  24.9157  24.9157  26.3266  26.3266
    29.7018  29.7018

          k = 0.2500-0.5000-0.5000 (  8024 PWs)   bands (ev):

   -77.8945 -77.8945 -77.8945 -77.8945 -77.8945 -77.8945 -43.1927 -43.1927
   -43.1925 -43.1925 -43.1921 -43.1921 -28.3542 -28.3542 -28.3203 -28.3203
   -28.2615 -28.2615 -28.2533 -28.2533 -28.1717 -28.1717 -28.1651 -28.1651
     1.5892   1.5892   1.5903   1.5903   4.0778   4.0778   4.1389   4.1389
     4.1642   4.1642  10.4928  10.4928  14.1847  14.1847  14.2533  14.2533
    14.8730  14.8730  15.6899  15.6899  15.8948  15.8948  16.0162  16.0162
    16.4000  16.4000  16.5967  16.5967  17.1855  17.1855  17.2702  17.2702
    18.2134  18.2134  18.2254  18.2254  18.4294  18.4294  18.6291  18.6291
    18.6664  18.6664  19.3686  19.3686  20.4565  20.4565  20.5660  20.5660
    21.7926  21.7926  24.3419  24.3419  24.3665  24.3665  25.6050  25.6050
    30.0346  30.0346

          k = 0.3750 0.3750 0.3750 (  8045 PWs)   bands (ev):

   -77.8960 -77.8960 -77.8938 -77.8938 -77.8938 -77.8938 -43.1953 -43.1953
   -43.1950 -43.1950 -43.1871 -43.1871 -28.3596 -28.3596 -28.3244 -28.3244
   -28.2601 -28.2601 -28.2542 -28.2542 -28.1729 -28.1729 -28.1545 -28.1545
     1.5833   1.5833   1.5911   1.5911   4.0721   4.0721   4.1429   4.1429
     4.1532   4.1532  10.3930  10.3930  13.8901  13.8901  14.7384  14.7384
    14.7723  14.7723  15.8143  15.8143  15.9754  15.9754  16.2353  16.2353
    16.3207  16.3207  16.5831  16.5831  17.2236  17.2236  17.3631  17.3631
    18.0071  18.0071  18.1783  18.1783  18.5303  18.5303  18.7873  18.7873
    18.9391  18.9391  19.8962  19.8962  20.2440  20.2440  20.3875  20.3875
    21.3862  21.3862  23.4401  23.4401  23.7686  23.7686  25.6946  25.6946
    30.9825  30.9825

          k = 0.3750 0.3750-0.5000 (  8012 PWs)   bands (ev):

   -77.8953 -77.8953 -77.8945 -77.8945 -77.8938 -77.8938 -43.1952 -43.1952
   -43.1925 -43.1925 -43.1898 -43.1898 -28.3635 -28.3635 -28.3286 -28.3286
   -28.2586 -28.2586 -28.2561 -28.2561 -28.1646 -28.1646 -28.1546 -28.1546
     1.5834   1.5834   1.5879   1.5879   4.0654   4.0654   4.1435   4.1435
     4.1534   4.1534  10.3919  10.3919  14.2296  14.2296  14.3666  14.3666
    14.8370  14.8370  15.9568  15.9568  16.1008  16.1008  16.1750  16.1750
    16.4226  16.4226  16.6933  16.6933  17.1626  17.1626  17.5838  17.5838
    18.0680  18.0680  18.1664  18.1664  18.5304  18.5304  18.5955  18.5955
    19.2018  19.2018  19.5692  19.5692  20.2495  20.2495  20.3045  20.3045
    20.8645  20.8645  23.3410  23.3410  23.9730  23.9730  24.9040  24.9040
    31.2294  31.2294

          k = 0.3750-0.5000-0.5000 (  8044 PWs)   bands (ev):

   -77.8945 -77.8945 -77.8945 -77.8945 -77.8945 -77.8945 -43.1927 -43.1927
   -43.1927 -43.1927 -43.1921 -43.1921 -28.3680 -28.3680 -28.3332 -28.3332
   -28.2582 -28.2582 -28.2564 -28.2564 -28.1558 -28.1558 -28.1543 -28.1543
     1.5835   1.5835   1.5838   1.5838   4.0574   4.0574   4.1447   4.1447
     4.1517   4.1517  10.3632  10.3632  14.4288  14.4288  14.4630  14.4630
    14.6047  14.6047  16.1081  16.1081  16.1281  16.1281  16.2832  16.2832
    16.7307  16.7307  16.7447  16.7447  17.1154  17.1154  17.6996  17.6996
    18.1446  18.1446  18.2780  18.2780  18.4025  18.4025  18.5686  18.5686
    19.1523  19.1523  19.3721  19.3721  20.0221  20.0221  20.1731  20.1731
    20.7100  20.7100  23.4260  23.4260  23.7548  23.7548  24.1412  24.1412
    31.4956  31.4956

          k =-0.5000-0.5000-0.5000 (  8024 PWs)   bands (ev):

   -77.8945 -77.8945 -77.8945 -77.8945 -77.8945 -77.8945 -43.1927 -43.1927
   -43.1927 -43.1927 -43.1921 -43.1921 -28.3732 -28.3732 -28.3381 -28.3381
   -28.2572 -28.2572 -28.2572 -28.2572 -28.1501 -28.1501 -28.1501 -28.1501
     1.5811   1.5811   1.5811   1.5811   4.0485   4.0485   4.1472   4.1472
     4.1472   4.1472  10.3133  10.3133  14.5002  14.5002  14.5002  14.5002
    14.5382  14.5382  16.1493  16.1493  16.1493  16.1493  16.6688  16.6688
    16.9979  16.9979  17.2590  17.2590  17.2590  17.2590  17.8224  17.8224
    17.8224  17.8224  17.8543  17.8543  18.4490  18.4490  18.4490  18.4490
    19.0463  19.0463  19.4985  19.4985  20.0095  20.0095  20.0095  20.0095
    20.4029  20.4029  23.0646  23.0646  23.5986  23.5986  23.5986  23.5986
    31.7876  31.7876

     the Fermi energy is    20.1517 ev

!    total energy              =    -925.36355574 Ry
     Harris-Foulkes estimate   =    -925.36355574 Ry
     estimated scf accuracy    <          2.0E-09 Ry

     The total energy is the sum of the following terms:

     one-electron contribution =    -210.62787963 Ry
     hartree contribution      =     150.48980905 Ry
     xc contribution           =    -183.00419115 Ry
     ewald contribution        =    -682.22134663 Ry
     smearing contrib. (-TS)   =       0.00005262 Ry

     convergence has been achieved in   9 iterations

     Forces acting on atoms (cartesian axes, Ry/au):

     atom    1 type  1   force =     0.00000000    0.00000000   -0.00000000
     atom    2 type  1   force =     0.00000000    0.00000000    0.00000000
     atom    3 type  1   force =     0.00000000    0.00000000    0.00000000
     atom    4 type  2   force =     0.00000000    0.00000000    0.00000000

     Total force =     0.000000     Total SCF correction =     0.000000


     Computing stress (Cartesian axis) and pressure

     Message from routine stres:
     noncollinear stress + GGA not implemented

     Writing output data file PbPt3.save
 
     init_run     :      2.33s CPU      2.78s WALL (       1 calls)
     electrons    :     87.29s CPU     89.11s WALL (       1 calls)
     forces       :      4.49s CPU      4.54s WALL (       1 calls)

     Called by init_run:
     wfcinit      :      2.26s CPU      2.36s WALL (       1 calls)
     potinit      :      0.02s CPU      0.14s WALL (       1 calls)

     Called by electrons:
     c_bands      :     78.42s CPU     79.68s WALL (      10 calls)
     sum_band     :      8.76s CPU      9.03s WALL (      10 calls)
     v_of_rho     :      0.05s CPU      0.05s WALL (      10 calls)
     mix_rho      :      0.03s CPU      0.10s WALL (      10 calls)

     Called by c_bands:
     init_us_2    :      0.51s CPU      0.54s WALL (     770 calls)
     cegterg      :     65.29s CPU     66.36s WALL (     350 calls)

     Called by sum_band:

     Called by *egterg:
     h_psi        :     47.21s CPU     48.16s WALL (    1135 calls)
     g_psi        :      0.20s CPU      0.21s WALL (     750 calls)
     cdiaghg      :     10.47s CPU     10.51s WALL (    1065 calls)

     Called by h_psi:
     h_psi:pot    :     46.76s CPU     47.69s WALL (    1135 calls)
     h_psi:calbec :      3.29s CPU      3.30s WALL (    1135 calls)
     vloc_psi     :     36.73s CPU     37.61s WALL (    1135 calls)
     add_vuspsi   :      6.72s CPU      6.77s WALL (    1135 calls)

     General routines
     calbec       :      4.04s CPU      4.01s WALL (    1275 calls)
     fft          :      0.05s CPU      0.18s WALL (     182 calls)
     fftw         :     40.92s CPU     42.04s WALL (  329744 calls)
 
     Parallel routines
     fft_scatt_xy :      3.40s CPU      3.47s WALL (  329926 calls)
     fft_scatt_yz :     16.68s CPU     17.28s WALL (  329926 calls)
 
     PWSCF        :  1m38.02s CPU     1m45.30s WALL

 
   This run was terminated on:  16:27:32  15Apr2020            

=------------------------------------------------------------------------------=
   JOB DONE.
=------------------------------------------------------------------------------=
