mpijob CMD    : mpirun -f /tmp/mpiexec.params.k050801.207502
mpijob PARAMS : -d /home/k0508/k050801/qeirreps/ver_5/qeirreps/reference/PbPt3_soc
        r1i5n19 10 omplace -nt 4 "/home/k0508/k050801/qe-6.6/bin/pw.x"

SGI MPT Placement option
--------------------------
omplace -nt 4

Node   MPI
------------
r1i5n19 10


     Program PWSCF v.6.6 starts on 29Nov2020 at 20:55:21 

     This program is part of the open-source Quantum ESPRESSO suite
     for quantum simulation of materials; please cite
         "P. Giannozzi et al., J. Phys.:Condens. Matter 21 395502 (2009);
         "P. Giannozzi et al., J. Phys.:Condens. Matter 29 465901 (2017);
          URL http://www.quantum-espresso.org", 
     in publications or presentations arising from this work. More details at
     http://www.quantum-espresso.org/quote

     Parallel version (MPI), running on    10 processors

     MPI processes distributed on     1 nodes
     R & G space division:  proc/nbgrp/npool/nimage =      10
     Fft bands division:     nmany     =       1
     Waiting for input...
     Reading input from standard input

     Current dimensions of program PWSCF are:
     Max number of different atomic species (ntypx) = 10
     Max number of k-points (npk) =  40000
     Max angular momentum in pseudopotentials (lmaxx) =  3

     Atomic positions and unit cell read from directory:
     /work/k0508/k050801/PbPt3/rep/PbPt3.save/
     Atomic positions from file used, from input discarded
 

     Subspace diagonalization in iterative solution of the eigenvalue problem:
     a serial algorithm will be used

     Message from routine setup:
     using ibrav=0 with symmetry is DISCOURAGED, use correct ibrav instead
 
     Parallelization info
     --------------------
     sticks:   dense  smooth     PW     G-vecs:    dense   smooth      PW
     Min         194     194     55                 6422     6422     979
     Max         195     195     56                 6426     6426     982
     Sum        1941    1941    553                64229    64229    9795
 


     bravais-lattice index     =            0
     lattice parameter (alat)  =       7.8085  a.u.
     unit-cell volume          =     476.1138 (a.u.)^3
     number of atoms/cell      =            4
     number of atomic types    =            2
     number of electrons       =        68.00
     number of Kohn-Sham states=           82
     kinetic-energy cutoff     =     100.0000  Ry
     charge density cutoff     =     400.0000  Ry
     Exchange-correlation= PBE
                           (   1   4   3   4   0   0   0)
     Non magnetic calculation with spin-orbit


     celldm(1)=   7.808548  celldm(2)=   0.000000  celldm(3)=   0.000000
     celldm(4)=   0.000000  celldm(5)=   0.000000  celldm(6)=   0.000000

     crystal axes: (cart. coord. in units of alat)
               a(1) = (   1.000000   0.000000   0.000000 )  
               a(2) = (   0.000000   1.000000   0.000000 )  
               a(3) = (   0.000000   0.000000   1.000000 )  

     reciprocal axes: (cart. coord. in units 2 pi/alat)
               b(1) = (  1.000000  0.000000  0.000000 )  
               b(2) = (  0.000000  1.000000  0.000000 )  
               b(3) = (  0.000000  0.000000  1.000000 )  


     PseudoPot. # 1 for Pt read from file:
     ../../pseudo/soc/Pt.upf
     MD5 check sum: 38b37cc9fce0bd1ebfe8ed3e237ab632
     Pseudo is Norm-conserving + core correction, Zval = 18.0
     Generated using ONCVPSP code by D. R. Hamann
     Using radial grid of 1374 points, 14 beta functions with: 
                l(1) =   0
                l(2) =   0
                l(3) =   1
                l(4) =   1
                l(5) =   1
                l(6) =   1
                l(7) =   2
                l(8) =   2
                l(9) =   2
               l(10) =   2
               l(11) =   3
               l(12) =   3
               l(13) =   3
               l(14) =   3

     PseudoPot. # 2 for Pb read from file:
     ../../pseudo/soc/Pb.upf
     MD5 check sum: 73abbbd201951038fc1bdacebad68d2f
     Pseudo is Norm-conserving + core correction, Zval = 14.0
     Generated using ONCVPSP code by D. R. Hamann
     Using radial grid of 1782 points, 10 beta functions with: 
                l(1) =   0
                l(2) =   0
                l(3) =   1
                l(4) =   1
                l(5) =   1
                l(6) =   1
                l(7) =   2
                l(8) =   2
                l(9) =   2
               l(10) =   2

     atomic species   valence    mass     pseudopotential
        Pt            18.00   195.08400     Pt( 1.00)
        Pb            14.00   207.20000     Pb( 1.00)

     48 Sym. Ops., with inversion, found



   Cartesian axes

     site n.     atom                  positions (alat units)
         1           Pt  tau(   1) = (   0.0000000   0.5000000   0.5000000  )
         2           Pt  tau(   2) = (   0.5000000   0.0000000   0.5000000  )
         3           Pt  tau(   3) = (   0.5000000   0.5000000   0.0000000  )
         4           Pb  tau(   4) = (   0.0000000   0.0000000   0.0000000  )

     number of k points=     4  Methfessel-Paxton smearing, width (Ry)=  0.0100
                       cart. coord. in units 2pi/alat
        k(    1) = (   0.0000000   0.0000000   0.0000000), wk =   0.2500000
        k(    2) = (   0.0000000   0.5000000   0.0000000), wk =   0.2500000
        k(    3) = (   0.5000000   0.5000000   0.0000000), wk =   0.2500000
        k(    4) = (   0.5000000   0.5000000   0.5000000), wk =   0.2500000

     Dense  grid:    64229 G-vectors     FFT dimensions: (  50,  50,  50)

     Estimated max dynamical RAM per process >      41.01 MB

     Estimated total dynamical RAM >     410.07 MB

     The potential is recalculated from file :
     /work/k0508/k050801/PbPt3/rep/PbPt3.save/charge-density

     Starting wfcs are   78 randomized atomic wfcs +    4 random wfcs

     Band Structure Calculation
     Davidson diagonalization with overlap

     ethr =  1.47E-11,  avg # of iterations = 36.5

     total cpu time spent up to now is        6.8 secs

     End of band structure calculation

          k = 0.0000 0.0000 0.0000 (  8121 PWs)   bands (ev):

   -77.9052 -77.9052 -77.8898 -77.8898 -77.8898 -77.8898 -43.2107 -43.2107
   -43.2107 -43.2107 -43.1557 -43.1557 -28.3553 -28.3553 -28.3182 -28.3182
   -28.3182 -28.3182 -28.2510 -28.2510 -28.1368 -28.1368 -28.1368 -28.1368
     1.5603   1.5603   1.5603   1.5603   4.0661   4.0661   4.0661   4.0661
     4.1011   4.1011   8.3085   8.3085  13.6601  13.6601  15.0839  15.0839
    15.0839  15.0839  15.1267  15.1267  15.1911  15.1911  15.1911  15.1911
    17.6524  17.6524  17.6524  17.6524  18.1656  18.1656  18.4368  18.4368
    19.0587  19.0587  19.0587  19.0587  19.4666  19.4666  19.4666  19.4666
    19.6854  19.6854  19.7935  19.7935  20.4097  20.4097  20.4097  20.4097
    21.5020  21.5020  25.8743  25.8743  25.8743  25.8743  27.4768  27.4768
    27.6313  27.6313

          k = 0.0000 0.5000 0.0000 (  8008 PWs)   bands (ev):

   -77.9000 -77.9000 -77.8949 -77.8949 -77.8898 -77.8898 -43.2108 -43.2108
   -43.1925 -43.1925 -43.1742 -43.1742 -28.3319 -28.3319 -28.2806 -28.2806
   -28.2690 -28.2690 -28.2447 -28.2447 -28.2391 -28.2391 -28.1589 -28.1589
     1.5792   1.5792   1.6034   1.6034   4.0977   4.0977   4.1298   4.1298
     4.1530   4.1530   9.9255   9.9255  12.4229  12.4229  14.9394  14.9394
    15.2528  15.2528  15.3055  15.3055  15.3224  15.3224  16.2457  16.2457
    16.4743  16.4743  16.5931  16.5931  17.1466  17.1466  17.7138  17.7138
    18.0064  18.0064  18.0155  18.0155  18.0859  18.0859  18.1657  18.1657
    19.2350  19.2350  20.1567  20.1567  21.0758  21.0758  23.3733  23.3733
    24.5543  24.5543  24.9248  24.9248  25.4473  25.4473  25.9940  25.9940
    27.6965  27.6965

          k = 0.5000 0.5000 0.0000 (  8020 PWs)   bands (ev):

   -77.8949 -77.8949 -77.8949 -77.8949 -77.8949 -77.8949 -43.1930 -43.1930
   -43.1926 -43.1926 -43.1924 -43.1924 -28.3283 -28.3283 -28.2997 -28.2997
   -28.2714 -28.2714 -28.2382 -28.2382 -28.2082 -28.2082 -28.1821 -28.1821
     1.5973   1.5973   1.5999   1.5999   4.1028   4.1028   4.1322   4.1322
     4.1873   4.1873  10.7058  10.7058  13.7622  13.7622  13.8722  13.8722
    14.9530  14.9530  15.7277  15.7277  15.8276  15.8276  15.8847  15.8847
    15.9793  15.9793  16.6713  16.6713  16.8086  16.8086  17.5893  17.5893
    17.7189  17.7189  17.7970  17.7970  18.2129  18.2129  18.4180  18.4180
    18.5370  18.5370  18.8951  18.8951  20.9378  20.9378  20.9890  20.9890
    24.6396  24.6396  25.9899  25.9899  27.5053  27.5053  27.5116  27.5116
    28.3008  28.3008

          k = 0.5000 0.5000 0.5000 (  8024 PWs)   bands (ev):

   -77.8949 -77.8949 -77.8949 -77.8949 -77.8949 -77.8949 -43.1931 -43.1931
   -43.1931 -43.1931 -43.1925 -43.1925 -28.3735 -28.3735 -28.3384 -28.3384
   -28.2575 -28.2575 -28.2575 -28.2575 -28.1504 -28.1504 -28.1504 -28.1504
     1.5814   1.5814   1.5814   1.5814   4.0488   4.0488   4.1476   4.1476
     4.1476   4.1476  10.3134  10.3134  14.5002  14.5002  14.5002  14.5002
    14.5381  14.5381  16.1492  16.1492  16.1492  16.1492  16.6688  16.6688
    16.9978  16.9978  17.2590  17.2590  17.2590  17.2590  17.8223  17.8223
    17.8223  17.8223  17.8542  17.8542  18.4489  18.4489  18.4489  18.4489
    19.0462  19.0462  19.4985  19.4985  20.0094  20.0094  20.0094  20.0094
    20.4028  20.4028  23.0645  23.0645  23.5985  23.5985  23.5985  23.5985
    31.7876  31.7876

     Writing output data file /work/k0508/k050801/PbPt3/rep/PbPt3.save/
 
     init_run     :      0.08s CPU      0.10s WALL (       1 calls)
     electrons    :      6.14s CPU      6.27s WALL (       1 calls)

     Called by init_run:
     wfcinit      :      0.00s CPU      0.00s WALL (       1 calls)
     potinit      :      0.01s CPU      0.01s WALL (       1 calls)
     hinit0       :      0.03s CPU      0.05s WALL (       1 calls)

     Called by electrons:
     c_bands      :      6.14s CPU      6.27s WALL (       1 calls)
     v_of_rho     :      0.01s CPU      0.01s WALL (       1 calls)

     Called by c_bands:
     init_us_2    :      0.00s CPU      0.00s WALL (       4 calls)
     cegterg      :      5.60s CPU      5.70s WALL (       8 calls)

     Called by *egterg:
     cdiaghg      :      0.85s CPU      0.85s WALL (     150 calls)
     h_psi        :      3.95s CPU      4.06s WALL (     158 calls)
     g_psi        :      0.02s CPU      0.02s WALL (     146 calls)

     Called by h_psi:
     h_psi:calbec :      0.30s CPU      0.31s WALL (     158 calls)
     vloc_psi     :      3.11s CPU      3.21s WALL (     158 calls)
     add_vuspsi   :      0.51s CPU      0.52s WALL (     158 calls)

     General routines
     calbec       :      0.30s CPU      0.31s WALL (     158 calls)
     fft          :      0.01s CPU      0.01s WALL (      14 calls)
     fftw         :      2.81s CPU      2.90s WALL (   19392 calls)
     davcio       :      0.00s CPU      0.01s WALL (       8 calls)
 
     Parallel routines
     fft_scatt_xy :      0.29s CPU      0.30s WALL (   19406 calls)
     fft_scatt_yz :      0.90s CPU      0.93s WALL (   19406 calls)
 
     PWSCF        :      6.70s CPU      7.00s WALL

 
   This run was terminated on:  20:55:28  29Nov2020            

=------------------------------------------------------------------------------=
   JOB DONE.
=------------------------------------------------------------------------------=
