mpijob CMD    : mpirun -f /tmp/mpiexec.params.k050801.207255
mpijob PARAMS : -d /home/k0508/k050801/qeirreps/ver_5/qeirreps/reference/PbPt3_soc
        r1i5n19 10 omplace -nt 4 "/home/k0508/k050801/qe-6.6/bin/pw.x"

SGI MPT Placement option
--------------------------
omplace -nt 4

Node   MPI
------------
r1i5n19 10


     Program PWSCF v.6.6 starts on 29Nov2020 at 20:53:18 

     This program is part of the open-source Quantum ESPRESSO suite
     for quantum simulation of materials; please cite
         "P. Giannozzi et al., J. Phys.:Condens. Matter 21 395502 (2009);
         "P. Giannozzi et al., J. Phys.:Condens. Matter 29 465901 (2017);
          URL http://www.quantum-espresso.org", 
     in publications or presentations arising from this work. More details at
     http://www.quantum-espresso.org/quote

     Parallel version (MPI), running on    10 processors

     MPI processes distributed on     1 nodes
     R & G space division:  proc/nbgrp/npool/nimage =      10
     Fft bands division:     nmany     =       1
     Waiting for input...
     Reading input from standard input

     Current dimensions of program PWSCF are:
     Max number of different atomic species (ntypx) = 10
     Max number of k-points (npk) =  40000
     Max angular momentum in pseudopotentials (lmaxx) =  3

     Subspace diagonalization in iterative solution of the eigenvalue problem:
     a serial algorithm will be used

     Message from routine setup:
     using ibrav=0 with symmetry is DISCOURAGED, use correct ibrav instead
 
     Parallelization info
     --------------------
     sticks:   dense  smooth     PW     G-vecs:    dense   smooth      PW
     Min         194     194     55                 6422     6422     979
     Max         195     195     56                 6426     6426     982
     Sum        1941    1941    553                64229    64229    9795
 


     bravais-lattice index     =            0
     lattice parameter (alat)  =       7.8085  a.u.
     unit-cell volume          =     476.1138 (a.u.)^3
     number of atoms/cell      =            4
     number of atomic types    =            2
     number of electrons       =        68.00
     number of Kohn-Sham states=           82
     kinetic-energy cutoff     =     100.0000  Ry
     charge density cutoff     =     400.0000  Ry
     convergence threshold     =      1.0E-08
     mixing beta               =       0.3000
     number of iterations used =            8  plain     mixing
     Exchange-correlation= PBE
                           (   1   4   3   4   0   0   0)
     Non magnetic calculation with spin-orbit


     celldm(1)=   7.808548  celldm(2)=   0.000000  celldm(3)=   0.000000
     celldm(4)=   0.000000  celldm(5)=   0.000000  celldm(6)=   0.000000

     crystal axes: (cart. coord. in units of alat)
               a(1) = (   1.000000   0.000000   0.000000 )  
               a(2) = (   0.000000   1.000000   0.000000 )  
               a(3) = (   0.000000   0.000000   1.000000 )  

     reciprocal axes: (cart. coord. in units 2 pi/alat)
               b(1) = (  1.000000  0.000000  0.000000 )  
               b(2) = (  0.000000  1.000000  0.000000 )  
               b(3) = (  0.000000  0.000000  1.000000 )  


     PseudoPot. # 1 for Pt read from file:
     ../../pseudo/soc/Pt.upf
     MD5 check sum: 38b37cc9fce0bd1ebfe8ed3e237ab632
     Pseudo is Norm-conserving + core correction, Zval = 18.0
     Generated using ONCVPSP code by D. R. Hamann
     Using radial grid of 1374 points, 14 beta functions with: 
                l(1) =   0
                l(2) =   0
                l(3) =   1
                l(4) =   1
                l(5) =   1
                l(6) =   1
                l(7) =   2
                l(8) =   2
                l(9) =   2
               l(10) =   2
               l(11) =   3
               l(12) =   3
               l(13) =   3
               l(14) =   3

     PseudoPot. # 2 for Pb read from file:
     ../../pseudo/soc/Pb.upf
     MD5 check sum: 73abbbd201951038fc1bdacebad68d2f
     Pseudo is Norm-conserving + core correction, Zval = 14.0
     Generated using ONCVPSP code by D. R. Hamann
     Using radial grid of 1782 points, 10 beta functions with: 
                l(1) =   0
                l(2) =   0
                l(3) =   1
                l(4) =   1
                l(5) =   1
                l(6) =   1
                l(7) =   2
                l(8) =   2
                l(9) =   2
               l(10) =   2

     atomic species   valence    mass     pseudopotential
        Pt            18.00   195.08400     Pt( 1.00)
        Pb            14.00   207.20000     Pb( 1.00)

     48 Sym. Ops., with inversion, found



   Cartesian axes

     site n.     atom                  positions (alat units)
         1           Pt  tau(   1) = (   0.0000000   0.5000000   0.5000000  )
         2           Pt  tau(   2) = (   0.5000000   0.0000000   0.5000000  )
         3           Pt  tau(   3) = (   0.5000000   0.5000000   0.0000000  )
         4           Pb  tau(   4) = (   0.0000000   0.0000000   0.0000000  )

     number of k points=    35  Methfessel-Paxton smearing, width (Ry)=  0.0100
                       cart. coord. in units 2pi/alat
        k(    1) = (   0.0000000   0.0000000   0.0000000), wk =   0.0019531
        k(    2) = (   0.0000000   0.0000000   0.1250000), wk =   0.0117188
        k(    3) = (   0.0000000   0.0000000   0.2500000), wk =   0.0117188
        k(    4) = (   0.0000000   0.0000000   0.3750000), wk =   0.0117188
        k(    5) = (   0.0000000   0.0000000  -0.5000000), wk =   0.0058594
        k(    6) = (   0.0000000   0.1250000   0.1250000), wk =   0.0234375
        k(    7) = (   0.0000000   0.1250000   0.2500000), wk =   0.0468750
        k(    8) = (   0.0000000   0.1250000   0.3750000), wk =   0.0468750
        k(    9) = (   0.0000000   0.1250000  -0.5000000), wk =   0.0234375
        k(   10) = (   0.0000000   0.2500000   0.2500000), wk =   0.0234375
        k(   11) = (   0.0000000   0.2500000   0.3750000), wk =   0.0468750
        k(   12) = (   0.0000000   0.2500000  -0.5000000), wk =   0.0234375
        k(   13) = (   0.0000000   0.3750000   0.3750000), wk =   0.0234375
        k(   14) = (   0.0000000   0.3750000  -0.5000000), wk =   0.0234375
        k(   15) = (   0.0000000  -0.5000000  -0.5000000), wk =   0.0058594
        k(   16) = (   0.1250000   0.1250000   0.1250000), wk =   0.0156250
        k(   17) = (   0.1250000   0.1250000   0.2500000), wk =   0.0468750
        k(   18) = (   0.1250000   0.1250000   0.3750000), wk =   0.0468750
        k(   19) = (   0.1250000   0.1250000  -0.5000000), wk =   0.0234375
        k(   20) = (   0.1250000   0.2500000   0.2500000), wk =   0.0468750
        k(   21) = (   0.1250000   0.2500000   0.3750000), wk =   0.0937500
        k(   22) = (   0.1250000   0.2500000  -0.5000000), wk =   0.0468750
        k(   23) = (   0.1250000   0.3750000   0.3750000), wk =   0.0468750
        k(   24) = (   0.1250000   0.3750000  -0.5000000), wk =   0.0468750
        k(   25) = (   0.1250000  -0.5000000  -0.5000000), wk =   0.0117188
        k(   26) = (   0.2500000   0.2500000   0.2500000), wk =   0.0156250
        k(   27) = (   0.2500000   0.2500000   0.3750000), wk =   0.0468750
        k(   28) = (   0.2500000   0.2500000  -0.5000000), wk =   0.0234375
        k(   29) = (   0.2500000   0.3750000   0.3750000), wk =   0.0468750
        k(   30) = (   0.2500000   0.3750000  -0.5000000), wk =   0.0468750
        k(   31) = (   0.2500000  -0.5000000  -0.5000000), wk =   0.0117188
        k(   32) = (   0.3750000   0.3750000   0.3750000), wk =   0.0156250
        k(   33) = (   0.3750000   0.3750000  -0.5000000), wk =   0.0234375
        k(   34) = (   0.3750000  -0.5000000  -0.5000000), wk =   0.0117188
        k(   35) = (  -0.5000000  -0.5000000  -0.5000000), wk =   0.0019531

     Dense  grid:    64229 G-vectors     FFT dimensions: (  50,  50,  50)

     Estimated max dynamical RAM per process >     118.47 MB

     Estimated total dynamical RAM >       1.16 GB

     Initial potential from superposition of free atoms

     starting charge   67.99697, renormalised to   68.00000
     Starting wfcs are   78 randomized atomic wfcs +    4 random wfcs

     total cpu time spent up to now is        3.3 secs

     Self-consistent Calculation

     iteration #  1     ecut=   100.00 Ry     beta= 0.30
     Davidson diagonalization with overlap
     ethr =  1.00E-02,  avg # of iterations =  3.3

     Threshold (ethr) on eigenvalues was too large:
     Diagonalizing with lowered threshold

     Davidson diagonalization with overlap
     ethr =  2.53E-04,  avg # of iterations =  2.0

     total cpu time spent up to now is       24.0 secs

     total energy              =    -925.35037395 Ry
     estimated scf accuracy    <       0.18021036 Ry

     iteration #  2     ecut=   100.00 Ry     beta= 0.30
     Davidson diagonalization with overlap
     ethr =  2.65E-04,  avg # of iterations =  2.0

     total cpu time spent up to now is       34.0 secs

     total energy              =    -925.36262033 Ry
     estimated scf accuracy    <       0.02257454 Ry

     iteration #  3     ecut=   100.00 Ry     beta= 0.30
     Davidson diagonalization with overlap
     ethr =  3.32E-05,  avg # of iterations =  2.3

     total cpu time spent up to now is       43.6 secs

     total energy              =    -925.36325990 Ry
     estimated scf accuracy    <       0.00449351 Ry

     iteration #  4     ecut=   100.00 Ry     beta= 0.30
     Davidson diagonalization with overlap
     ethr =  6.61E-06,  avg # of iterations =  2.9

     total cpu time spent up to now is       53.6 secs

     total energy              =    -925.36351724 Ry
     estimated scf accuracy    <       0.00064548 Ry

     iteration #  5     ecut=   100.00 Ry     beta= 0.30
     Davidson diagonalization with overlap
     ethr =  9.49E-07,  avg # of iterations =  2.7

     total cpu time spent up to now is       63.1 secs

     total energy              =    -925.36355316 Ry
     estimated scf accuracy    <       0.00000934 Ry

     iteration #  6     ecut=   100.00 Ry     beta= 0.30
     Davidson diagonalization with overlap
     ethr =  1.37E-08,  avg # of iterations =  2.4

     total cpu time spent up to now is       75.0 secs

     total energy              =    -925.36355528 Ry
     estimated scf accuracy    <       0.00000198 Ry

     iteration #  7     ecut=   100.00 Ry     beta= 0.30
     Davidson diagonalization with overlap
     ethr =  2.91E-09,  avg # of iterations =  2.0

     total cpu time spent up to now is       86.1 secs

     total energy              =    -925.36355569 Ry
     estimated scf accuracy    <       0.00000033 Ry

     iteration #  8     ecut=   100.00 Ry     beta= 0.30
     Davidson diagonalization with overlap
     ethr =  4.88E-10,  avg # of iterations =  2.0

     total cpu time spent up to now is       95.8 secs

     total energy              =    -925.36355573 Ry
     estimated scf accuracy    <       0.00000002 Ry

     iteration #  9     ecut=   100.00 Ry     beta= 0.30
     Davidson diagonalization with overlap
     ethr =  3.36E-11,  avg # of iterations =  2.0

     total cpu time spent up to now is      106.6 secs

     End of self-consistent calculation

          k = 0.0000 0.0000 0.0000 (  8121 PWs)   bands (ev):

   -77.9046 -77.9046 -77.8892 -77.8892 -77.8892 -77.8892 -43.2102 -43.2102
   -43.2102 -43.2102 -43.1552 -43.1552 -28.3549 -28.3549 -28.3177 -28.3177
   -28.3177 -28.3177 -28.2506 -28.2506 -28.1364 -28.1364 -28.1364 -28.1364
     1.5600   1.5600   1.5600   1.5600   4.0657   4.0657   4.0657   4.0657
     4.1008   4.1008   8.3085   8.3085  13.6601  13.6601  15.0841  15.0841
    15.0841  15.0841  15.1269  15.1269  15.1913  15.1913  15.1913  15.1913
    17.6527  17.6527  17.6527  17.6527  18.1659  18.1659  18.4368  18.4368
    19.0589  19.0589  19.0589  19.0589  19.4666  19.4666  19.4666  19.4666
    19.6857  19.6857  19.7938  19.7938  20.4100  20.4100  20.4100  20.4100
    21.5020  21.5020  25.8744  25.8744  25.8744  25.8744  27.4767  27.4767
    27.6313  27.6313

          k = 0.0000 0.0000 0.1250 (  8085 PWs)   bands (ev):

   -77.9041 -77.9041 -77.8897 -77.8897 -77.8892 -77.8892 -43.2102 -43.2102
   -43.2084 -43.2084 -43.1570 -43.1570 -28.3494 -28.3494 -28.3158 -28.3158
   -28.3140 -28.3140 -28.2517 -28.2517 -28.1446 -28.1446 -28.1393 -28.1393
     1.5627   1.5627   1.5663   1.5663   4.0704   4.0704   4.0784   4.0784
     4.1048   4.1048   8.4618   8.4618  13.7473  13.7473  15.0006  15.0006
    15.1254  15.1254  15.1547  15.1547  15.1681  15.1681  15.2983  15.2983
    17.1036  17.1036  17.4962  17.4962  17.9753  17.9753  18.2784  18.2784
    18.8189  18.8189  18.9420  18.9420  18.9750  18.9750  19.4610  19.4610
    19.6959  19.6959  20.0027  20.0027  20.6507  20.6507  20.8192  20.8192
    21.9777  21.9777  25.8108  25.8108  25.8419  25.8419  27.5420  27.5420
    27.8451  27.8469

          k = 0.0000 0.0000 0.2500 (  8049 PWs)   bands (ev):

   -77.9026 -77.9026 -77.8912 -77.8912 -77.8892 -77.8892 -43.2103 -43.2103
   -43.2033 -43.2033 -43.1622 -43.1622 -28.3384 -28.3384 -28.3055 -28.3055
   -28.3038 -28.3038 -28.2552 -28.2552 -28.1678 -28.1678 -28.1469 -28.1469
     1.5694   1.5694   1.5815   1.5815   4.0817   4.0817   4.1092   4.1092
     4.1149   4.1149   8.9019   8.9019  13.7721  13.7721  14.6147  14.6147
    15.2005  15.2005  15.2212  15.2212  15.2493  15.2493  15.6186  15.6186
    16.5232  16.5232  17.1741  17.1741  17.3417  17.3417  17.7760  17.7760
    18.5331  18.5331  18.7012  18.7012  18.7597  18.7597  19.0886  19.0886
    19.4313  19.4313  20.1138  20.1138  21.4781  21.4781  21.8841  21.8841
    21.9288  21.9288  25.6511  25.6511  26.6724  26.6724  27.0549  27.0550
    27.8830  27.8830

          k = 0.0000 0.0000 0.3750 (  8041 PWs)   bands (ev):

   -77.9007 -77.9007 -77.8931 -77.8931 -77.8892 -77.8892 -43.2103 -43.2103
   -43.1963 -43.1963 -43.1693 -43.1693 -28.3326 -28.3326 -28.2901 -28.2901
   -28.2789 -28.2789 -28.2618 -28.2618 -28.2020 -28.2020 -28.1549 -28.1549
     1.5760   1.5760   1.5968   1.5968   4.0928   4.0928   4.1251   4.1251
     4.1399   4.1399   9.5288   9.5288  12.9842  12.9842  14.7574  14.7574
    15.2472  15.2472  15.2907  15.2907  15.2984  15.2984  16.0349  16.0349
    16.3731  16.3731  16.8420  16.8420  17.0629  17.0629  17.6790  17.6790
    18.1507  18.1507  18.3036  18.3036  18.3431  18.3431  18.5089  18.5089
    19.2738  19.2738  20.1453  20.1453  21.3058  21.3058  22.6912  22.6912
    23.2991  23.2991  25.4810  25.4810  26.0969  26.0969  26.5639  26.5639
    27.9052  28.0687

          k = 0.0000 0.0000-0.5000 (  8008 PWs)   bands (ev):

   -77.8995 -77.8995 -77.8943 -77.8943 -77.8892 -77.8892 -43.2103 -43.2103
   -43.1920 -43.1920 -43.1737 -43.1737 -28.3314 -28.3314 -28.2801 -28.2801
   -28.2685 -28.2685 -28.2443 -28.2443 -28.2386 -28.2386 -28.1585 -28.1585
     1.5788   1.5788   1.6031   1.6031   4.0974   4.0974   4.1294   4.1294
     4.1527   4.1527   9.9255   9.9255  12.4230  12.4230  14.9395  14.9395
    15.2530  15.2530  15.3056  15.3056  15.3225  15.3225  16.2460  16.2460
    16.4745  16.4745  16.5934  16.5934  17.1468  17.1468  17.7141  17.7141
    18.0066  18.0066  18.0157  18.0157  18.0861  18.0861  18.1660  18.1660
    19.2353  19.2353  20.1570  20.1570  21.0758  21.0758  23.3734  23.3734
    24.5544  24.5544  24.9249  24.9249  25.4474  25.4474  25.9940  25.9940
    27.6966  27.6966

          k = 0.0000 0.1250 0.1250 (  8069 PWs)   bands (ev):

   -77.9036 -77.9036 -77.8900 -77.8900 -77.8895 -77.8895 -43.2093 -43.2093
   -43.2076 -43.2076 -43.1588 -43.1588 -28.3445 -28.3445 -28.3158 -28.3158
   -28.3092 -28.3092 -28.2518 -28.2518 -28.1532 -28.1532 -28.1413 -28.1413
     1.5658   1.5658   1.5713   1.5713   4.0771   4.0771   4.0873   4.0873
     4.1085   4.1085   8.6116   8.6116  13.8270  13.8270  15.0092  15.0092
    15.0749  15.0749  15.1758  15.1758  15.2469  15.2469  15.2987  15.2987
    16.7288  16.7288  17.3533  17.3533  17.8080  17.8080  18.2018  18.2018
    18.7326  18.7326  18.8511  18.8511  18.9355  18.9355  19.1819  19.1819
    19.4951  19.4951  20.0783  20.0783  20.5895  20.5895  21.2171  21.2171
    22.5549  22.5549  25.5112  25.5112  26.0737  26.0737  27.3852  27.3852
    27.8040  27.8040

          k = 0.0000 0.1250 0.2500 (  8046 PWs)   bands (ev):

   -77.9022 -77.9022 -77.8913 -77.8913 -77.8896 -77.8896 -43.2090 -43.2090
   -43.2030 -43.2030 -43.1639 -43.1639 -28.3345 -28.3345 -28.3101 -28.3101
   -28.2979 -28.2979 -28.2522 -28.2522 -28.1749 -28.1749 -28.1486 -28.1486
     1.5724   1.5724   1.5842   1.5842   4.0882   4.0882   4.1131   4.1131
     4.1180   4.1180   9.0394   9.0394  13.8409  13.8409  14.6804  14.6804
    15.0918  15.0918  15.1869  15.1869  15.4354  15.4354  15.5192  15.5192
    16.3554  16.3554  17.0992  17.0992  17.1837  17.1837  17.9074  17.9074
    18.4441  18.4441  18.5402  18.5402  18.7996  18.7996  19.0235  19.0235
    19.3063  19.3063  19.9234  19.9234  21.0149  21.0149  22.0804  22.0804
    22.6621  22.6621  25.3380  25.3380  26.5199  26.5199  27.2885  27.2885
    27.8599  27.8603

          k = 0.0000 0.1250 0.3750 (  8053 PWs)   bands (ev):

   -77.9003 -77.9003 -77.8931 -77.8931 -77.8896 -77.8896 -43.2090 -43.2090
   -43.1963 -43.1963 -43.1708 -43.1708 -28.3293 -28.3293 -28.2982 -28.2982
   -28.2791 -28.2791 -28.2515 -28.2515 -28.2054 -28.2054 -28.1575 -28.1575
     1.5789   1.5789   1.5971   1.5971   4.0992   4.0992   4.1233   4.1233
     4.1434   4.1434   9.6408   9.6408  13.1025  13.1025  14.8000  14.8000
    15.1512  15.1512  15.2017  15.2017  15.4514  15.4514  15.9203  15.9203
    16.3150  16.3150  16.6976  16.6976  17.0891  17.0891  17.7304  17.7304
    18.0230  18.0230  18.2167  18.2167  18.4477  18.4477  18.6483  18.6483
    19.2253  19.2253  19.8754  19.8754  21.0760  21.0760  22.7965  22.7965
    23.3460  23.3460  24.7986  24.7986  26.3457  26.3457  26.8412  26.8412
    28.4048  28.4048

          k = 0.0000 0.1250-0.5000 (  8032 PWs)   bands (ev):

   -77.8991 -77.8991 -77.8943 -77.8943 -77.8896 -77.8896 -43.2090 -43.2090
   -43.1920 -43.1920 -43.1751 -43.1751 -28.3283 -28.3283 -28.2926 -28.2926
   -28.2648 -28.2648 -28.2393 -28.2393 -28.2354 -28.2354 -28.1617 -28.1617
     1.5816   1.5816   1.6025   1.6025   4.1041   4.1041   4.1260   4.1260
     4.1552   4.1552  10.0121  10.0121  12.5807  12.5807  15.0144  15.0144
    15.1266  15.1266  15.2434  15.2434  15.3710  15.3710  16.1511  16.1511
    16.3380  16.3380  16.6593  16.6593  17.0511  17.0511  17.6663  17.6663
    17.8414  17.8414  18.1430  18.1430  18.1714  18.1714  18.4119  18.4119
    19.1890  19.1890  19.8746  19.8746  20.9328  20.9328  23.4663  23.4663
    23.6531  23.6531  24.7006  24.7006  25.7492  25.7492  26.6025  26.6025
    28.2857  28.2857

          k = 0.0000 0.2500 0.2500 (  8040 PWs)   bands (ev):

   -77.9009 -77.9009 -77.8918 -77.8918 -77.8903 -77.8903 -43.2063 -43.2063
   -43.2012 -43.2012 -43.1685 -43.1685 -28.3256 -28.3256 -28.3129 -28.3129
   -28.2900 -28.2900 -28.2439 -28.2439 -28.1930 -28.1930 -28.1550 -28.1550
     1.5794   1.5794   1.5909   1.5909   4.0991   4.0991   4.1208   4.1208
     4.1326   4.1326   9.4265   9.4265  13.8999  13.8999  14.6289  14.6289
    15.0493  15.0493  15.1020  15.1020  15.4797  15.4797  15.7229  15.7229
    16.0687  16.0687  16.7106  16.7106  17.1330  17.1330  17.9951  17.9951
    18.2917  18.2917  18.3781  18.3781  18.5232  18.5232  18.9103  18.9103
    19.0567  19.0567  19.6322  19.6322  20.9153  20.9153  22.3569  22.3569
    23.0007  23.0007  25.1820  25.1820  26.3462  26.3462  27.6887  27.6887
    28.2329  28.2329

          k = 0.0000 0.2500 0.3750 (  8038 PWs)   bands (ev):

   -77.8991 -77.8991 -77.8932 -77.8932 -77.8907 -77.8907 -43.2052 -43.2052
   -43.1961 -43.1961 -43.1749 -43.1749 -28.3212 -28.3212 -28.3099 -28.3099
   -28.2774 -28.2774 -28.2346 -28.2346 -28.2149 -28.2149 -28.1645 -28.1645
     1.5857   1.5857   1.5980   1.5980   4.1087   4.1087   4.1220   4.1220
     4.1551   4.1551   9.9494   9.9494  13.4099  13.4099  14.5624  14.5624
    15.0806  15.0806  15.2644  15.2644  15.6561  15.6561  15.7497  15.7497
    16.1339  16.1339  16.4110  16.4110  17.2222  17.2222  17.7792  17.7792
    17.9543  17.9543  18.1766  18.1766  18.3422  18.3422  18.7049  18.7049
    19.0390  19.0390  19.4145  19.4145  20.9039  20.9039  21.9605  21.9605
    23.9416  23.9416  24.7318  24.7318  26.6373  26.6373  27.6106  27.6106
    28.2103  28.2103

          k = 0.0000 0.2500-0.5000 (  8060 PWs)   bands (ev):

   -77.8980 -77.8980 -77.8943 -77.8943 -77.8907 -77.8907 -43.2050 -43.2050
   -43.1921 -43.1921 -43.1791 -43.1791 -28.3211 -28.3211 -28.3074 -28.3074
   -28.2650 -28.2650 -28.2386 -28.2386 -28.2214 -28.2214 -28.1697 -28.1697
     1.5882   1.5882   1.6011   1.6011   4.1153   4.1153   4.1193   4.1193
     4.1651   4.1651  10.2507  10.2507  13.0105  13.0105  14.6189  14.6189
    15.1124  15.1124  15.3362  15.3362  15.5372  15.5372  15.9489  15.9489
    16.1288  16.1288  16.7121  16.7121  16.9283  16.9283  17.6387  17.6387
    17.7811  17.7811  18.1565  18.1565  18.2717  18.2717  18.5829  18.5829
    19.0683  19.0683  19.3345  19.3345  20.7836  20.7836  21.9625  21.9625
    24.0447  24.0447  25.0461  25.0461  26.6428  26.6428  26.9460  26.9460
    28.6934  28.6934

          k = 0.0000 0.3750 0.3750 (  8022 PWs)   bands (ev):

   -77.8975 -77.8975 -77.8936 -77.8936 -77.8919 -77.8919 -43.2008 -43.2008
   -43.1948 -43.1948 -43.1808 -43.1808 -28.3214 -28.3214 -28.3087 -28.3087
   -28.2729 -28.2729 -28.2298 -28.2298 -28.2181 -28.2181 -28.1732 -28.1732
     1.5922   1.5922   1.5991   1.5991   4.1078   4.1078   4.1266   4.1266
     4.1718   4.1718  10.3433  10.3433  13.6666  13.6666  14.0944  14.0944
    15.0249  15.0249  15.5436  15.5436  15.7127  15.7127  15.7926  15.7926
    15.9724  15.9724  16.4131  16.4131  17.2196  17.2196  17.6665  17.6665
    17.9067  17.9067  17.9911  17.9911  18.2416  18.2416  18.6185  18.6185
    18.7882  18.7882  19.0952  19.0952  20.9607  20.9607  21.2110  21.2110
    24.4376  24.4376  25.1819  25.1819  26.9653  26.9653  27.6649  27.6650
    28.5824  28.5825

          k = 0.0000 0.3750-0.5000 (  8034 PWs)   bands (ev):

   -77.8963 -77.8963 -77.8943 -77.8943 -77.8924 -77.8924 -43.1991 -43.1991
   -43.1922 -43.1922 -43.1851 -43.1851 -28.3242 -28.3242 -28.3048 -28.3048
   -28.2683 -28.2683 -28.2381 -28.2381 -28.2111 -28.2111 -28.1782 -28.1782
     1.5946   1.5946   1.5997   1.5997   4.1064   4.1064   4.1286   4.1286
     4.1797   4.1797  10.5514  10.5514  13.5418  13.5418  14.0794  14.0794
    15.0007  15.0007  15.6449  15.6449  15.7349  15.7349  15.8569  15.8569
    15.9519  15.9519  16.7225  16.7225  16.8558  16.8558  17.6373  17.6373
    17.7599  17.7599  17.9217  17.9217  18.2725  18.2725  18.4826  18.4826
    18.7357  18.7357  18.9926  18.9926  20.8727  20.8727  21.1464  21.1464
    24.4283  24.4283  25.7007  25.7007  27.1291  27.1291  27.7874  27.7874
    27.8946  27.8946

          k = 0.0000-0.5000-0.5000 (  8020 PWs)   bands (ev):

   -77.8943 -77.8943 -77.8943 -77.8943 -77.8943 -77.8943 -43.1925 -43.1925
   -43.1921 -43.1921 -43.1919 -43.1919 -28.3278 -28.3278 -28.2992 -28.2992
   -28.2710 -28.2710 -28.2378 -28.2378 -28.2077 -28.2077 -28.1817 -28.1817
     1.5969   1.5969   1.5995   1.5995   4.1024   4.1024   4.1319   4.1319
     4.1869   4.1869  10.7057  10.7057  13.7623  13.7623  13.8723  13.8723
    14.9532  14.9532  15.7279  15.7279  15.8278  15.8278  15.8848  15.8848
    15.9795  15.9795  16.6715  16.6715  16.8088  16.8088  17.5896  17.5896
    17.7191  17.7191  17.7973  17.7973  18.2131  18.2131  18.4183  18.4183
    18.5373  18.5373  18.8954  18.8954  20.9381  20.9381  20.9892  20.9892
    24.6396  24.6396  25.9900  25.9900  27.5054  27.5054  27.5117  27.5117
    28.3011  28.3011

          k = 0.1250 0.1250 0.1250 (  8079 PWs)   bands (ev):

   -77.9031 -77.9031 -77.8900 -77.8900 -77.8900 -77.8900 -43.2076 -43.2076
   -43.2076 -43.2076 -43.1606 -43.1606 -28.3409 -28.3409 -28.3153 -28.3153
   -28.3049 -28.3049 -28.2512 -28.2512 -28.1618 -28.1618 -28.1426 -28.1426
     1.5681   1.5681   1.5761   1.5761   4.0828   4.0828   4.0950   4.0950
     4.1119   4.1119   8.7574   8.7574  13.8850  13.8850  14.9814  14.9814
    15.1242  15.1242  15.1385  15.1385  15.3226  15.3226  15.3267  15.3267
    16.3944  16.3944  17.4448  17.4448  17.4931  17.4931  18.2876  18.2876
    18.4624  18.4624  18.8290  18.8290  18.9513  18.9513  18.9513  18.9513
    19.2920  19.2920  20.1731  20.1731  20.6113  20.6113  21.2197  21.2197
    23.2800  23.2800  25.3338  25.3338  25.9552  25.9552  27.1171  27.1171
    28.0148  28.0148

          k = 0.1250 0.1250 0.2500 (  8046 PWs)   bands (ev):

   -77.9018 -77.9018 -77.8913 -77.8913 -77.8900 -77.8900 -43.2076 -43.2076
   -43.2028 -43.2028 -43.1655 -43.1655 -28.3333 -28.3333 -28.3111 -28.3111
   -28.2941 -28.2941 -28.2490 -28.2490 -28.1824 -28.1824 -28.1492 -28.1492
     1.5743   1.5743   1.5870   1.5870   4.0928   4.0928   4.1156   4.1156
     4.1221   4.1221   9.1716   9.1716  13.8512  13.8512  14.7518  14.7518
    14.9952  14.9952  15.3616  15.3616  15.4476  15.4476  15.4727  15.4727
    16.1795  16.1795  17.0644  17.0644  17.1345  17.1345  17.9182  17.9182
    18.3275  18.3275  18.4576  18.4576  18.8271  18.8271  18.9131  18.9131
    19.1205  19.1205  19.9733  19.9733  20.9924  20.9924  21.6847  21.6847
    23.4208  23.4208  25.0384  25.0384  26.3668  26.3668  27.0493  27.0493
    27.8812  27.8813

          k = 0.1250 0.1250 0.3750 (  8043 PWs)   bands (ev):

   -77.8999 -77.8999 -77.8932 -77.8932 -77.8900 -77.8900 -43.2077 -43.2077
   -43.1963 -43.1963 -43.1722 -43.1722 -28.3289 -28.3289 -28.3028 -28.3028
   -28.2774 -28.2774 -28.2452 -28.2452 -28.2087 -28.2087 -28.1585 -28.1585
     1.5806   1.5806   1.5976   1.5976   4.1038   4.1038   4.1217   4.1217
     4.1459   4.1459   9.7442   9.7442  13.1976  13.1976  14.7116  14.7116
    15.0921  15.0921  15.4191  15.4191  15.4675  15.4675  15.8392  15.8392
    16.2581  16.2581  16.6481  16.6481  16.9833  16.9833  17.7547  17.7547
    18.0442  18.0442  18.1674  18.1674  18.5421  18.5421  18.6388  18.6388
    19.1169  19.1169  19.7800  19.7800  21.0530  21.0530  22.4223  22.4223
    23.5596  23.5596  24.3496  24.3496  26.0440  26.0440  27.8886  27.8887
    28.4165  28.4165

          k = 0.1250 0.1250-0.5000 (  8024 PWs)   bands (ev):

   -77.8987 -77.8987 -77.8943 -77.8943 -77.8900 -77.8900 -43.2077 -43.2077
   -43.1920 -43.1920 -43.1764 -43.1764 -28.3279 -28.3279 -28.2987 -28.2987
   -28.2636 -28.2636 -28.2423 -28.2423 -28.2267 -28.2267 -28.1632 -28.1632
     1.5833   1.5833   1.6019   1.6019   4.1097   4.1097   4.1221   4.1221
     4.1566   4.1566  10.0875  10.0875  12.7313  12.7313  14.7748  14.7748
    15.1285  15.1285  15.4092  15.4092  15.4988  15.4988  16.1167  16.1167
    16.2423  16.2423  16.5462  16.5462  16.9211  16.9211  17.7504  17.7504
    17.9387  17.9387  18.1080  18.1080  18.2757  18.2757  18.4673  18.4673
    19.0972  19.0972  19.7198  19.7198  20.9316  20.9316  22.9626  22.9626
    23.7349  23.7349  24.0541  24.0541  25.6030  25.6030  28.1771  28.1771
    28.7667  28.7668

          k = 0.1250 0.2500 0.2500 (  8057 PWs)   bands (ev):

   -77.9005 -77.9005 -77.8918 -77.8918 -77.8907 -77.8907 -43.2050 -43.2050
   -43.2012 -43.2012 -43.1699 -43.1699 -28.3309 -28.3309 -28.3107 -28.3107
   -28.2859 -28.2859 -28.2403 -28.2403 -28.1996 -28.1996 -28.1536 -28.1536
     1.5793   1.5793   1.5931   1.5931   4.0999   4.0999   4.1227   4.1227
     4.1351   4.1351   9.5393   9.5393  13.7776  13.7776  14.7341  14.7341
    15.0757  15.0757  15.2776  15.2776  15.4646  15.4646  15.7391  15.7391
    16.0206  16.0206  16.6902  16.6902  17.0521  17.0521  17.9090  17.9090
    18.1701  18.1701  18.3340  18.3340  18.5663  18.5663  18.8085  18.8085
    18.9664  18.9664  19.8698  19.8698  20.9185  20.9185  21.9203  21.9203
    23.1311  23.1311  25.4088  25.4088  25.7559  25.7559  26.9229  26.9229
    28.9654  28.9654

          k = 0.1250 0.2500 0.3750 (  8033 PWs)   bands (ev):

   -77.8988 -77.8988 -77.8932 -77.8932 -77.8910 -77.8910 -43.2042 -43.2042
   -43.1961 -43.1961 -43.1760 -43.1760 -28.3295 -28.3295 -28.3079 -28.3079
   -28.2743 -28.2743 -28.2351 -28.2351 -28.2140 -28.2140 -28.1620 -28.1620
     1.5850   1.5850   1.5984   1.5984   4.1067   4.1067   4.1239   4.1239
     4.1545   4.1545  10.0222  10.0222  13.4258  13.4258  14.4726  14.4726
    15.2716  15.2716  15.3894  15.3894  15.6275  15.6275  15.8035  15.8035
    16.1261  16.1261  16.4013  16.4013  16.9651  16.9651  17.7812  17.7812
    18.0352  18.0352  18.1616  18.1616  18.3749  18.3749  18.6934  18.6934
    18.9204  18.9204  19.6198  19.6198  20.9289  20.9289  22.1281  22.1281
    22.6807  22.6807  24.8049  24.8049  26.5594  26.5594  27.1291  27.1291
    29.1485  29.1488

          k = 0.1250 0.2500-0.5000 (  8036 PWs)   bands (ev):

   -77.8977 -77.8977 -77.8943 -77.8943 -77.8910 -77.8910 -43.2041 -43.2041
   -43.1921 -43.1921 -43.1801 -43.1801 -28.3292 -28.3292 -28.3065 -28.3065
   -28.2637 -28.2637 -28.2444 -28.2444 -28.2125 -28.2125 -28.1673 -28.1673
     1.5876   1.5876   1.6004   1.6004   4.1109   4.1109   4.1224   4.1224
     4.1632   4.1632  10.2885  10.2885  13.1410  13.1410  14.3908  14.3908
    15.3178  15.3178  15.4376  15.4376  15.7270  15.7270  15.9329  15.9329
    16.0775  16.0775  16.4994  16.4994  16.7885  16.7885  17.7991  17.7991
    17.9319  17.9319  18.0954  18.0954  18.3294  18.3294  18.5705  18.5705
    18.9146  18.9146  19.5043  19.5043  20.8596  20.8596  22.1111  22.1111
    22.7243  22.7243  24.5555  24.5555  26.6167  26.6167  27.8533  27.8533
    29.0591  29.0591

          k = 0.1250 0.3750 0.3750 (  8035 PWs)   bands (ev):

   -77.8973 -77.8973 -77.8936 -77.8936 -77.8921 -77.8921 -43.2001 -43.2001
   -43.1948 -43.1948 -43.1815 -43.1815 -28.3325 -28.3325 -28.3078 -28.3078
   -28.2695 -28.2695 -28.2394 -28.2394 -28.2066 -28.2066 -28.1683 -28.1683
     1.5898   1.5898   1.5987   1.5987   4.1024   4.1024   4.1294   4.1294
     4.1675   4.1675  10.3592  10.3592  13.6158  13.6158  14.2111  14.2111
    15.2570  15.2570  15.4486  15.4486  15.6353  15.6353  15.9295  15.9295
    16.1267  16.1267  16.3948  16.3948  16.9212  16.9212  17.6291  17.6291
    17.9099  17.9099  18.1592  18.1592  18.2732  18.2732  18.7060  18.7060
    18.7798  18.7798  19.3230  19.3230  20.8872  20.8872  21.3161  21.3161
    22.8499  22.8499  25.6452  25.6452  25.8580  25.8580  27.3373  27.3373
    28.7672  28.7672

          k = 0.1250 0.3750-0.5000 (  8050 PWs)   bands (ev):

   -77.8961 -77.8961 -77.8943 -77.8943 -77.8925 -77.8925 -43.1986 -43.1986
   -43.1922 -43.1922 -43.1857 -43.1857 -28.3342 -28.3342 -28.3069 -28.3069
   -28.2657 -28.2657 -28.2455 -28.2455 -28.1996 -28.1996 -28.1729 -28.1729
     1.5921   1.5921   1.5984   1.5984   4.1002   4.1002   4.1311   4.1311
     4.1740   4.1740  10.5258  10.5258  13.6548  13.6548  14.0774  14.0774
    15.2582  15.2582  15.4143  15.4143  15.7321  15.7321  15.9164  15.9164
    16.2004  16.2004  16.5825  16.5825  16.7765  16.7765  17.5381  17.5381
    17.9257  17.9257  18.0593  18.0593  18.2814  18.2814  18.5481  18.5481
    18.7697  18.7697  19.2003  19.2003  20.8343  20.8343  21.0955  21.0955
    23.0577  23.0577  25.2785  25.2785  26.3494  26.3494  27.6217  27.6217
    28.0840  28.0840

          k = 0.1250-0.5000-0.5000 (  8032 PWs)   bands (ev):

   -77.8943 -77.8943 -77.8943 -77.8943 -77.8943 -77.8943 -43.1925 -43.1925
   -43.1922 -43.1922 -43.1919 -43.1919 -28.3368 -28.3368 -28.3056 -28.3056
   -28.2670 -28.2670 -28.2458 -28.2458 -28.1933 -28.1933 -28.1766 -28.1766
     1.5947   1.5947   1.5968   1.5968   4.0958   4.0958   4.1338   4.1338
     4.1796   4.1796  10.6390  10.6390  13.8882  13.8882  13.9884  13.9884
    15.1578  15.1578  15.3005  15.3005  15.8260  15.8260  15.8872  15.8872
    16.3684  16.3684  16.7236  16.7236  16.7406  16.7406  17.3925  17.3925
    17.8886  17.8886  17.9937  17.9937  18.3116  18.3116  18.4530  18.4530
    18.6104  18.6104  19.0367  19.0367  20.8530  20.8530  20.8680  20.8680
    23.3786  23.3786  25.5399  25.5399  25.8922  25.8922  27.4488  27.4488
    28.1288  28.1288

          k = 0.2500 0.2500 0.2500 (  8024 PWs)   bands (ev):

   -77.8995 -77.8995 -77.8918 -77.8918 -77.8918 -77.8918 -43.2013 -43.2013
   -43.2012 -43.2012 -43.1737 -43.1737 -28.3375 -28.3375 -28.3097 -28.3097
   -28.2775 -28.2775 -28.2338 -28.2338 -28.2101 -28.2101 -28.1538 -28.1538
     1.5808   1.5808   1.5966   1.5966   4.0990   4.0990   4.1297   4.1297
     4.1419   4.1419   9.8411   9.8411  13.5736  13.5736  14.9746  14.9746
    15.0701  15.0701  15.2671  15.2671  15.7515  15.7515  15.7810  15.7810
    16.0485  16.0485  16.5986  16.5986  16.7104  16.7104  17.8827  17.8827
    17.9487  17.9487  18.2275  18.2275  18.5484  18.5484  18.7351  18.7351
    18.9161  18.9161  20.0547  20.0547  20.8935  20.8935  21.3308  21.3308
    23.5753  23.5753  24.3227  24.3227  24.7180  24.7180  28.1408  28.1408
    29.3863  29.3865

          k = 0.2500 0.2500 0.3750 (  8039 PWs)   bands (ev):

   -77.8980 -77.8980 -77.8933 -77.8933 -77.8918 -77.8918 -43.2013 -43.2013
   -43.1959 -43.1959 -43.1792 -43.1792 -28.3409 -28.3409 -28.3102 -28.3102
   -28.2686 -28.2686 -28.2412 -28.2412 -28.2041 -28.2041 -28.1587 -28.1587
     1.5844   1.5844   1.5981   1.5981   4.0979   4.0979   4.1314   4.1314
     4.1546   4.1546  10.2018  10.2018  13.4718  13.4718  14.5121  14.5121
    15.3611  15.3611  15.4582  15.4582  15.7931  15.7931  15.9114  15.9114
    16.2079  16.2079  16.3635  16.3635  16.6928  16.6928  17.6797  17.6797
    17.9369  17.9369  18.2588  18.2588  18.3926  18.3926  18.7421  18.7421
    18.8709  18.8709  19.8379  19.8379  20.8984  20.8984  21.3991  21.3991
    22.4968  22.4968  23.6716  23.6716  25.4321  25.4321  28.2112  28.2112
    28.9126  28.9126

          k = 0.2500 0.2500-0.5000 (  8036 PWs)   bands (ev):

   -77.8969 -77.8969 -77.8943 -77.8943 -77.8918 -77.8918 -43.2013 -43.2013
   -43.1922 -43.1922 -43.1830 -43.1830 -28.3417 -28.3417 -28.3106 -28.3106
   -28.2615 -28.2615 -28.2506 -28.2506 -28.1966 -28.1966 -28.1632 -28.1632
     1.5866   1.5866   1.5979   1.5979   4.0978   4.0978   4.1309   4.1309
     4.1608   4.1608  10.3770  10.3770  13.4893  13.4893  14.1950  14.1950
    15.4378  15.4378  15.6192  15.6192  15.7965  15.7965  15.9961  15.9961
    16.1866  16.1866  16.3277  16.3277  16.7140  16.7140  17.6030  17.6030
    18.0354  18.0354  18.2658  18.2658  18.3585  18.3585  18.6308  18.6308
    18.8997  18.8997  19.6281  19.6281  21.0103  21.0103  21.5037  21.5037
    21.9384  21.9384  23.3768  23.3768  26.1644  26.1644  27.6652  27.6652
    28.6893  28.6893

          k = 0.2500 0.3750 0.3750 (  8029 PWs)   bands (ev):

   -77.8967 -77.8967 -77.8936 -77.8936 -77.8927 -77.8927 -43.1980 -43.1980
   -43.1949 -43.1949 -43.1837 -43.1837 -28.3483 -28.3483 -28.3149 -28.3149
   -28.2638 -28.2638 -28.2489 -28.2489 -28.1892 -28.1892 -28.1594 -28.1594
     1.5856   1.5856   1.5959   1.5959   4.0879   4.0879   4.1366   4.1366
     4.1588   4.1588  10.3847  10.3847  13.6462  13.6462  14.4974  14.4974
    15.1405  15.1405  15.6515  15.6515  15.8107  15.8107  15.9904  15.9904
    16.2899  16.2899  16.4787  16.4787  16.8484  16.8484  17.3986  17.3986
    17.9874  17.9874  18.2319  18.2319  18.4178  18.4178  18.7604  18.7604
    18.9137  18.9137  19.7161  19.7161  20.6213  20.6213  21.1546  21.1546
    21.7057  21.7057  24.1498  24.1498  24.4265  24.4265  27.0938  27.0938
    29.4932  29.4932

          k = 0.2500 0.3750-0.5000 (  8034 PWs)   bands (ev):

   -77.8957 -77.8957 -77.8943 -77.8943 -77.8929 -77.8929 -43.1972 -43.1972
   -43.1922 -43.1922 -43.1873 -43.1873 -28.3508 -28.3508 -28.3171 -28.3171
   -28.2611 -28.2611 -28.2529 -28.2529 -28.1808 -28.1808 -28.1621 -28.1621
     1.5871   1.5871   1.5939   1.5939   4.0837   4.0837   4.1373   4.1373
     4.1622   4.1622  10.4603  10.4603  13.9308  13.9308  14.1842  14.1842
    15.1429  15.1429  15.7271  15.7271  15.8185  15.8185  15.9903  15.9903
    16.3235  16.3235  16.5335  16.5335  17.0048  17.0048  17.3058  17.3058
    18.0802  18.0802  18.2281  18.2281  18.4167  18.4167  18.6360  18.6360
    18.9610  18.9610  19.5294  19.5294  20.6547  20.6547  20.8371  20.8371
    21.5766  21.5766  23.8492  23.8492  24.9157  24.9157  26.3267  26.3267
    29.7019  29.7019

          k = 0.2500-0.5000-0.5000 (  8024 PWs)   bands (ev):

   -77.8943 -77.8943 -77.8943 -77.8943 -77.8943 -77.8943 -43.1925 -43.1925
   -43.1924 -43.1924 -43.1919 -43.1919 -28.3540 -28.3540 -28.3201 -28.3201
   -28.2613 -28.2613 -28.2531 -28.2531 -28.1716 -28.1716 -28.1649 -28.1649
     1.5892   1.5892   1.5903   1.5903   4.0777   4.0777   4.1389   4.1389
     4.1642   4.1642  10.4929  10.4929  14.1847  14.1847  14.2533  14.2533
    14.8731  14.8731  15.6900  15.6900  15.8949  15.8949  16.0163  16.0163
    16.4000  16.4000  16.5968  16.5968  17.1856  17.1856  17.2702  17.2702
    18.2135  18.2135  18.2255  18.2255  18.4295  18.4295  18.6292  18.6292
    18.6665  18.6665  19.3687  19.3687  20.4566  20.4566  20.5662  20.5662
    21.7926  21.7926  24.3419  24.3419  24.3666  24.3666  25.6050  25.6050
    30.0346  30.0346

          k = 0.3750 0.3750 0.3750 (  8045 PWs)   bands (ev):

   -77.8958 -77.8958 -77.8936 -77.8936 -77.8936 -77.8936 -43.1951 -43.1951
   -43.1948 -43.1948 -43.1869 -43.1869 -28.3595 -28.3595 -28.3243 -28.3243
   -28.2600 -28.2600 -28.2540 -28.2540 -28.1727 -28.1727 -28.1543 -28.1543
     1.5832   1.5832   1.5910   1.5910   4.0721   4.0721   4.1429   4.1429
     4.1532   4.1532  10.3930  10.3930  13.8901  13.8901  14.7385  14.7385
    14.7724  14.7724  15.8143  15.8143  15.9755  15.9755  16.2354  16.2354
    16.3208  16.3208  16.5832  16.5832  17.2238  17.2238  17.3631  17.3631
    18.0072  18.0072  18.1784  18.1784  18.5304  18.5304  18.7874  18.7874
    18.9391  18.9391  19.8963  19.8963  20.2442  20.2442  20.3876  20.3876
    21.3863  21.3863  23.4402  23.4402  23.7687  23.7687  25.6947  25.6947
    30.9825  30.9825

          k = 0.3750 0.3750-0.5000 (  8012 PWs)   bands (ev):

   -77.8951 -77.8951 -77.8943 -77.8943 -77.8936 -77.8936 -43.1950 -43.1950
   -43.1923 -43.1923 -43.1896 -43.1896 -28.3633 -28.3633 -28.3284 -28.3284
   -28.2584 -28.2584 -28.2559 -28.2559 -28.1644 -28.1644 -28.1544 -28.1544
     1.5834   1.5834   1.5879   1.5879   4.0653   4.0653   4.1435   4.1435
     4.1533   4.1533  10.3919  10.3919  14.2296  14.2296  14.3666  14.3666
    14.8371  14.8371  15.9569  15.9569  16.1009  16.1009  16.1751  16.1751
    16.4226  16.4226  16.6934  16.6934  17.1627  17.1627  17.5838  17.5838
    18.0681  18.0681  18.1664  18.1664  18.5305  18.5305  18.5956  18.5956
    19.2018  19.2018  19.5693  19.5693  20.2496  20.2496  20.3046  20.3046
    20.8646  20.8646  23.3411  23.3411  23.9731  23.9731  24.9041  24.9041
    31.2294  31.2295

          k = 0.3750-0.5000-0.5000 (  8044 PWs)   bands (ev):

   -77.8943 -77.8943 -77.8943 -77.8943 -77.8943 -77.8943 -43.1925 -43.1925
   -43.1925 -43.1925 -43.1919 -43.1919 -28.3678 -28.3678 -28.3330 -28.3330
   -28.2580 -28.2580 -28.2562 -28.2562 -28.1557 -28.1557 -28.1542 -28.1542
     1.5835   1.5835   1.5837   1.5837   4.0574   4.0574   4.1446   4.1446
     4.1517   4.1517  10.3632  10.3632  14.4289  14.4289  14.4630  14.4630
    14.6047  14.6047  16.1082  16.1082  16.1282  16.1282  16.2833  16.2833
    16.7307  16.7307  16.7447  16.7447  17.1155  17.1155  17.6997  17.6997
    18.1447  18.1447  18.2781  18.2781  18.4026  18.4026  18.5687  18.5687
    19.1523  19.1523  19.3723  19.3723  20.0222  20.0222  20.1732  20.1732
    20.7102  20.7102  23.4260  23.4260  23.7549  23.7549  24.1412  24.1412
    31.4956  31.4957

          k =-0.5000-0.5000-0.5000 (  8024 PWs)   bands (ev):

   -77.8943 -77.8943 -77.8943 -77.8943 -77.8943 -77.8943 -43.1926 -43.1926
   -43.1926 -43.1926 -43.1919 -43.1919 -28.3730 -28.3730 -28.3379 -28.3379
   -28.2571 -28.2571 -28.2571 -28.2571 -28.1499 -28.1499 -28.1499 -28.1499
     1.5810   1.5810   1.5810   1.5810   4.0485   4.0485   4.1472   4.1472
     4.1472   4.1472  10.3134  10.3134  14.5003  14.5003  14.5003  14.5003
    14.5382  14.5382  16.1494  16.1494  16.1494  16.1494  16.6688  16.6688
    16.9980  16.9980  17.2590  17.2590  17.2590  17.2590  17.8225  17.8225
    17.8225  17.8225  17.8544  17.8544  18.4492  18.4492  18.4492  18.4492
    19.0464  19.0464  19.4984  19.4984  20.0097  20.0097  20.0097  20.0097
    20.4030  20.4030  23.0647  23.0647  23.5986  23.5986  23.5986  23.5986
    31.7876  31.7876

     the Fermi energy is    20.1518 ev

!    total energy              =    -925.36355574 Ry
     estimated scf accuracy    <          4.9E-09 Ry
     smearing contrib. (-TS)   =       0.00005261 Ry
     internal energy E=F+TS    =    -925.36360835 Ry

     The total energy is F=E-TS. E is the sum of the following terms:
     one-electron contribution =    -210.62716937 Ry
     hartree contribution      =     150.48896711 Ry
     xc contribution           =    -183.00405647 Ry
     ewald contribution        =    -682.22134961 Ry

     convergence has been achieved in   9 iterations

     Forces acting on atoms (cartesian axes, Ry/au):

     atom    1 type  1   force =     0.00000000    0.00000000   -0.00000000
     atom    2 type  1   force =     0.00000000    0.00000000    0.00000000
     atom    3 type  1   force =     0.00000000    0.00000000    0.00000000
     atom    4 type  2   force =     0.00000000    0.00000000    0.00000000

     Total force =     0.000000     Total SCF correction =     0.000000


     Computing stress (Cartesian axis) and pressure

          total   stress  (Ry/bohr**3)                   (kbar)     P=       -1.66
  -0.00001127   0.00000000   0.00000000           -1.66        0.00        0.00
   0.00000000  -0.00001127   0.00000000            0.00       -1.66        0.00
   0.00000000   0.00000000  -0.00001127            0.00        0.00       -1.66


     Writing output data file /work/k0508/k050801/PbPt3/scf/PbPt3.save/
 
     init_run     :      2.73s CPU      2.90s WALL (       1 calls)
     electrons    :    101.62s CPU    103.31s WALL (       1 calls)
     forces       :      3.69s CPU      3.69s WALL (       1 calls)
     stress       :      9.85s CPU      9.85s WALL (       1 calls)

     Called by init_run:
     wfcinit      :      2.64s CPU      2.78s WALL (       1 calls)
     potinit      :      0.01s CPU      0.02s WALL (       1 calls)
     hinit0       :      0.03s CPU      0.05s WALL (       1 calls)

     Called by electrons:
     c_bands      :     90.97s CPU     92.36s WALL (      10 calls)
     sum_band     :     10.55s CPU     10.83s WALL (      10 calls)
     v_of_rho     :      0.06s CPU      0.06s WALL (      10 calls)
     mix_rho      :      0.04s CPU      0.04s WALL (      10 calls)

     Called by c_bands:
     init_us_2    :      0.56s CPU      0.59s WALL (     805 calls)
     cegterg      :     70.07s CPU     71.38s WALL (     350 calls)

     Called by *egterg:
     cdiaghg      :      6.28s CPU      6.32s WALL (    1142 calls)
     h_psi        :     55.48s CPU     56.87s WALL (    1212 calls)
     g_psi        :      0.21s CPU      0.21s WALL (     827 calls)

     Called by h_psi:
     h_psi:calbec :      4.00s CPU      4.02s WALL (    1212 calls)
     vloc_psi     :     44.42s CPU     45.73s WALL (    1212 calls)
     add_vuspsi   :      6.81s CPU      6.83s WALL (    1212 calls)

     General routines
     calbec       :      4.79s CPU      4.81s WALL (    1387 calls)
     fft          :      0.05s CPU      0.06s WALL (     155 calls)
     ffts         :      0.01s CPU      0.01s WALL (      40 calls)
     fftw         :     48.65s CPU     50.09s WALL (  334236 calls)
 
     Parallel routines
     fft_scatt_xy :      5.43s CPU      5.59s WALL (  334431 calls)
     fft_scatt_yz :     15.58s CPU     16.04s WALL (  334431 calls)
 
     PWSCF        :   1m58.65s CPU   2m 1.33s WALL

 
   This run was terminated on:  20:55:20  29Nov2020            

=------------------------------------------------------------------------------=
   JOB DONE.
=------------------------------------------------------------------------------=
