mpijob CMD    : mpirun -f /tmp/mpiexec.params.k050801.104230
mpijob PARAMS : -d /home/k0508/k050801/qeirreps/ver_5/qeirreps/reference/Bi_soc
        r1i6n18 24 omplace -nt 1 "/home/k0508/k050801/qe-6.6/bin/bands.x"

SGI MPT Placement option
--------------------------
omplace -nt 1

Node   MPI
------------
r1i6n18 24


     Program BANDS v.6.6 starts on 29Nov2020 at 21: 6:32 

     This program is part of the open-source Quantum ESPRESSO suite
     for quantum simulation of materials; please cite
         "P. Giannozzi et al., J. Phys.:Condens. Matter 21 395502 (2009);
         "P. Giannozzi et al., J. Phys.:Condens. Matter 29 465901 (2017);
          URL http://www.quantum-espresso.org", 
     in publications or presentations arising from this work. More details at
     http://www.quantum-espresso.org/quote

     Parallel version (MPI), running on    24 processors

     MPI processes distributed on     1 nodes
     R & G space division:  proc/nbgrp/npool/nimage =      24
     Fft bands division:     nmany     =       1

     Reading xml data from directory:

     /work/k0508/k050801/Bi/band/Bi.save/

     IMPORTANT: XC functional enforced from input :
     Exchange-correlation= PBE
                           (   1   4   3   4   0   0   0)
     Any further DFT definition will be discarded
     Please, verify this is what you really want

 
     Parallelization info
     --------------------
     sticks:   dense  smooth     PW     G-vecs:    dense   smooth      PW
     Min          91      91     25                 2787     2787     410
     Max          92      92     26                 2793     2793     413
     Sum        2197    2197    617                66925    66925    9883
 
     Reading collected, re-writing distributed wavefunctions
     high-symmetry point:  0.0000 0.0000 0.0000   x coordinate   0.0000
     high-symmetry point:  0.0000 0.0000 0.6009   x coordinate   0.6009
     high-symmetry point:  0.5397 0.0000 0.6009   x coordinate   1.1406
     high-symmetry point:  0.7710-0.1335 0.2003   x coordinate   1.1406
     high-symmetry point:  0.5204 0.3005 0.2003   x coordinate   1.6417
     high-symmetry point:  0.0000 0.0000 0.0000   x coordinate   2.2751
     high-symmetry point:  0.7710 0.0000 0.0000   x coordinate   3.0461
     high-symmetry point:  0.6553-0.0668 0.4006   x coordinate   3.0461
     high-symmetry point:  0.5204-0.3005 0.4006   x coordinate   3.3159
     high-symmetry point:  0.0000 0.0000 0.0000   x coordinate   4.0382

     Plottable bands (eV) written to file Bi.band.gnu
     Bands written to file Bi.band

 **************************************************************************

                    xk=(   0.00000,   0.00000,   0.00000  )

     double point group D_3d (-3m) 
     there are 12 classes and  6 irreducible representations
     the character table:

       E     -E    2C3   -2C3  3C2'  -3C2' i     -i    2S6   -2S6  3s_v  -3s_v
                                                                              
G_4+   2.00 -2.00  1.00 -1.00  0.00  0.00  2.00 -2.00  1.00 -1.00  0.00  0.00
G_5+   1.00 -1.00 -1.00  1.00  0.00  0.00  1.00 -1.00 -1.00  1.00  0.00  0.00
G_6+   1.00 -1.00 -1.00  1.00  0.00  0.00  1.00 -1.00 -1.00  1.00  0.00  0.00
G_4-   2.00 -2.00  1.00 -1.00  0.00  0.00 -2.00  2.00 -1.00  1.00  0.00  0.00
G_5-   1.00 -1.00 -1.00  1.00  0.00  0.00 -1.00  1.00  1.00 -1.00  0.00  0.00
G_6-   1.00 -1.00 -1.00  1.00  0.00  0.00 -1.00  1.00  1.00 -1.00  0.00  0.00

     imaginary part

       E     -E    2C3   -2C3  3C2'  -3C2' i     -i    2S6   -2S6  3s_v  -3s_v
                                                                              
G_4+   0.00  0.00  0.00  0.00  0.00  0.00  0.00  0.00  0.00  0.00  0.00  0.00
G_5+   0.00  0.00  0.00  0.00  1.00 -1.00  0.00  0.00  0.00  0.00  1.00 -1.00
G_6+   0.00  0.00  0.00  0.00 -1.00  1.00  0.00  0.00  0.00  0.00 -1.00  1.00
G_4-   0.00  0.00  0.00  0.00  0.00  0.00  0.00  0.00  0.00  0.00  0.00  0.00
G_5-   0.00  0.00  0.00  0.00  1.00 -1.00  0.00  0.00  0.00  0.00 -1.00  1.00
G_6-   0.00  0.00  0.00  0.00 -1.00  1.00  0.00  0.00  0.00  0.00  1.00 -1.00

     the symmetry operations in each class and the name of the first element:

     E             1
                                                                 
     -E           -1
                                                                 
     2C3           3    4
                                                                 
     -2C3         -3   -4
                                                                 
     3C2'          2   -5   -6
                                                                 
     3C2'          5    6   -2
                                                                 
     i             7
                                                                 
     -i           -7
                                                                 
     2S6           9   10
                                                                 
     -2S6         -9  -10
                                                                 
     3s_v          8  -11  -12
                                                                 
     3s_v         11   12   -8
                                                                 

     Band symmetry, D_3d (-3m)  double point group:

     e(  1 -  2) =    -14.94812  eV     2   --> G_5+  L_4+     
     e(  1 -  2) =    -14.94812  eV     2   --> G_6+  L_5+     
     e(  3 -  4) =    -14.94329  eV     2   --> G_4+  L_6+     
     e(  5 -  6) =    -14.88823  eV     2   --> G_5-  L_4-     
     e(  5 -  6) =    -14.88823  eV     2   --> G_6-  L_5-     
     e(  7 -  8) =    -14.88582  eV     2   --> G_4-  L_6-     
     e(  9 - 10) =    -12.02687  eV     2   --> G_4+  L_6+     
     e( 11 - 12) =    -12.01710  eV     2   --> G_5+  L_4+     
     e( 11 - 12) =    -12.01710  eV     2   --> G_6+  L_5+     
     e( 13 - 14) =    -12.01188  eV     2   --> G_4-  L_6-     
     e( 15 - 16) =    -11.82979  eV     2   --> G_4+  L_6+     
     e( 17 - 18) =    -11.82420  eV     2   --> G_5-  L_4-     
     e( 17 - 18) =    -11.82420  eV     2   --> G_6-  L_5-     
     e( 19 - 20) =    -11.82148  eV     2   --> G_4-  L_6-     
     e( 21 - 22) =     -3.40265  eV     2   --> G_4+  L_6+     
     e( 23 - 24) =      1.75963  eV     2   --> G_4-  L_6-     
     e( 25 - 26) =      6.43490  eV     2   --> G_4+  L_6+     
     e( 27 - 28) =      8.59250  eV     2   --> G_4+  L_6+     
     e( 29 - 30) =      8.84300  eV     2   --> G_5+  L_4+     
     e( 29 - 30) =      8.84300  eV     2   --> G_6+  L_5+     
     e( 31 - 32) =     10.19857  eV     2   --> G_4-  L_6-     
     e( 33 - 34) =     12.69883  eV     2   --> G_4-  L_6-     
     e( 35 - 36) =     12.91899  eV     2   --> G_5-  L_4-     
     e( 35 - 36) =     12.91899  eV     2   --> G_6-  L_5-     
     e( 37 - 38) =     14.74170  eV     2   --> G_4-  L_6-     

 **************************************************************************

 **************************************************************************

                    xk=(   0.00000,   0.00000,   0.01002  )

     double point group C_3v (3m)  
     there are  6 classes and  3 irreducible representations
     the character table:

       E     -E    2C3   -2C3  3s_v  -3s_v
                                          
G_4    2.00 -2.00  1.00 -1.00  0.00  0.00
G_5    1.00 -1.00 -1.00  1.00  0.00  0.00
G_6    1.00 -1.00 -1.00  1.00  0.00  0.00

     imaginary part

       E     -E    2C3   -2C3  3s_v  -3s_v
                                          
G_4    0.00  0.00  0.00  0.00  0.00  0.00
G_5    0.00  0.00  0.00  0.00  1.00 -1.00
G_6    0.00  0.00  0.00  0.00 -1.00  1.00

     the symmetry operations in each class and the name of the first element:

     E             1
                                                                 
     -E           -1
                                                                 
     2C3           2    3
                                                                 
     -2C3         -2   -3
                                                                 
     3s_v          4   -5   -6
                                                                 
     3s_v          5    6   -4
                                                                 

     Band symmetry, C_3v (3m)   double point group:

     e(  1 -  2) =    -14.94811  eV     2   --> G_5   L_4      
     e(  1 -  2) =    -14.94811  eV     2   --> G_6   L_5      
     e(  3 -  4) =    -14.94328  eV     2   --> G_4   L_6      
     e(  5 -  6) =    -14.88824  eV     2   --> G_5   L_4      
     e(  5 -  6) =    -14.88824  eV     2   --> G_6   L_5      
     e(  7 -  8) =    -14.88583  eV     2   --> G_4   L_6      
     e(  9 - 10) =    -12.02685  eV     2   --> G_4   L_6      
     e( 11 - 12) =    -12.01707  eV     2   --> G_5   L_4      
     e( 11 - 12) =    -12.01707  eV     2   --> G_6   L_5      
     e( 13 - 14) =    -12.01185  eV     2   --> G_4   L_6      
     e( 15 - 16) =    -11.82981  eV     2   --> G_4   L_6      
     e( 17 - 18) =    -11.82424  eV     2   --> G_5   L_4      
     e( 17 - 18) =    -11.82424  eV     2   --> G_6   L_5      
     e( 19 - 20) =    -11.82151  eV     2   --> G_4   L_6      
     e( 21 - 22) =     -3.40213  eV     2   --> G_4   L_6      
     e( 23 - 24) =      1.75816  eV     2   --> G_4   L_6      
     e( 25 - 26) =      6.43549  eV     2   --> G_4   L_6      
     e( 27 - 28) =      8.59267  eV     2   --> G_4   L_6      
     e( 29 - 30) =      8.84317  eV     2   --> G_5   L_4      
     e( 29 - 30) =      8.84317  eV     2   --> G_6   L_5      
     e( 31 - 32) =     10.19742  eV     2   --> G_4   L_6      
     e( 33 - 34) =     12.69613  eV     2   --> G_4   L_6      
     e( 35 - 36) =     12.91670  eV     2   --> G_5   L_4      
     e( 35 - 36) =     12.91670  eV     2   --> G_6   L_5      
     e( 37 - 38) =     14.73535  eV     2   --> G_4   L_6      

 **************************************************************************

 **************************************************************************

                    xk=(   0.00000,   0.00000,   0.02003  )

     Band symmetry, C_3v (3m)   double point group:

     e(  1 -  2) =    -14.94808  eV     2   --> G_5   L_4      
     e(  1 -  2) =    -14.94808  eV     2   --> G_6   L_5      
     e(  3 -  4) =    -14.94324  eV     2   --> G_4   L_6      
     e(  5 -  6) =    -14.88825  eV     2   --> G_5   L_4      
     e(  5 -  6) =    -14.88825  eV     2   --> G_6   L_5      
     e(  7 -  8) =    -14.88584  eV     2   --> G_4   L_6      
     e(  9 - 10) =    -12.02679  eV     2   --> G_4   L_6      
     e( 11 - 12) =    -12.01700  eV     2   --> G_5   L_4      
     e( 11 - 12) =    -12.01700  eV     2   --> G_6   L_5      
     e( 13 - 14) =    -12.01178  eV     2   --> G_4   L_6      
     e( 15 - 16) =    -11.82988  eV     2   --> G_4   L_6      
     e( 17 - 18) =    -11.82433  eV     2   --> G_5   L_4      
     e( 17 - 18) =    -11.82433  eV     2   --> G_6   L_5      
     e( 19 - 20) =    -11.82159  eV     2   --> G_4   L_6      
     e( 21 - 22) =     -3.40057  eV     2   --> G_4   L_6      
     e( 23 - 24) =      1.75373  eV     2   --> G_4   L_6      
     e( 25 - 26) =      6.43724  eV     2   --> G_4   L_6      
     e( 27 - 28) =      8.59319  eV     2   --> G_4   L_6      
     e( 29 - 30) =      8.84370  eV     2   --> G_5   L_4      
     e( 29 - 30) =      8.84370  eV     2   --> G_6   L_5      
     e( 31 - 32) =     10.19398  eV     2   --> G_4   L_6      
     e( 33 - 34) =     12.68807  eV     2   --> G_4   L_6      
     e( 35 - 36) =     12.90985  eV     2   --> G_5   L_4      
     e( 35 - 36) =     12.90985  eV     2   --> G_6   L_5      
     e( 37 - 38) =     14.71733  eV     2   --> G_4   L_6      

 **************************************************************************

 **************************************************************************

                    xk=(   0.00000,   0.00000,   0.03005  )

     Band symmetry, C_3v (3m)   double point group:

     e(  1 -  2) =    -14.94803  eV     2   --> G_5   L_4      
     e(  1 -  2) =    -14.94803  eV     2   --> G_6   L_5      
     e(  3 -  4) =    -14.94318  eV     2   --> G_4   L_6      
     e(  5 -  6) =    -14.88827  eV     2   --> G_5   L_4      
     e(  5 -  6) =    -14.88827  eV     2   --> G_6   L_5      
     e(  7 -  8) =    -14.88587  eV     2   --> G_4   L_6      
     e(  9 - 10) =    -12.02670  eV     2   --> G_4   L_6      
     e( 11 - 12) =    -12.01687  eV     2   --> G_5   L_4      
     e( 11 - 12) =    -12.01687  eV     2   --> G_6   L_5      
     e( 13 - 14) =    -12.01166  eV     2   --> G_4   L_6      
     e( 15 - 16) =    -11.82999  eV     2   --> G_4   L_6      
     e( 17 - 18) =    -11.82448  eV     2   --> G_5   L_4      
     e( 17 - 18) =    -11.82448  eV     2   --> G_6   L_5      
     e( 19 - 20) =    -11.82174  eV     2   --> G_4   L_6      
     e( 21 - 22) =     -3.39796  eV     2   --> G_4   L_6      
     e( 23 - 24) =      1.74637  eV     2   --> G_4   L_6      
     e( 25 - 26) =      6.44017  eV     2   --> G_4   L_6      
     e( 27 - 28) =      8.59404  eV     2   --> G_4   L_6      
     e( 29 - 30) =      8.84457  eV     2   --> G_5   L_4      
     e( 29 - 30) =      8.84457  eV     2   --> G_6   L_5      
     e( 31 - 32) =     10.18827  eV     2   --> G_4   L_6      
     e( 33 - 34) =     12.67475  eV     2   --> G_4   L_6      
     e( 35 - 36) =     12.89849  eV     2   --> G_5   L_4      
     e( 35 - 36) =     12.89849  eV     2   --> G_6   L_5      
     e( 37 - 38) =     14.69027  eV     2   --> G_4   L_6      

 **************************************************************************

 **************************************************************************

                    xk=(   0.00000,   0.00000,   0.04006  )

     Band symmetry, C_3v (3m)   double point group:

     e(  1 -  2) =    -14.94797  eV     2   --> G_5   L_4      
     e(  1 -  2) =    -14.94797  eV     2   --> G_6   L_5      
     e(  3 -  4) =    -14.94310  eV     2   --> G_4   L_6      
     e(  5 -  6) =    -14.88831  eV     2   --> G_5   L_4      
     e(  5 -  6) =    -14.88831  eV     2   --> G_6   L_5      
     e(  7 -  8) =    -14.88591  eV     2   --> G_4   L_6      
     e(  9 - 10) =    -12.02657  eV     2   --> G_4   L_6      
     e( 11 - 12) =    -12.01669  eV     2   --> G_5   L_4      
     e( 11 - 12) =    -12.01669  eV     2   --> G_6   L_5      
     e( 13 - 14) =    -12.01148  eV     2   --> G_4   L_6      
     e( 15 - 16) =    -11.83015  eV     2   --> G_4   L_6      
     e( 17 - 18) =    -11.82469  eV     2   --> G_5   L_4      
     e( 17 - 18) =    -11.82469  eV     2   --> G_6   L_5      
     e( 19 - 20) =    -11.82193  eV     2   --> G_4   L_6      
     e( 21 - 22) =     -3.39431  eV     2   --> G_4   L_6      
     e( 23 - 24) =      1.73610  eV     2   --> G_4   L_6      
     e( 25 - 26) =      6.44424  eV     2   --> G_4   L_6      
     e( 27 - 28) =      8.59521  eV     2   --> G_4   L_6      
     e( 29 - 30) =      8.84579  eV     2   --> G_5   L_4      
     e( 29 - 30) =      8.84579  eV     2   --> G_6   L_5      
     e( 31 - 32) =     10.18033  eV     2   --> G_4   L_6      
     e( 33 - 34) =     12.65632  eV     2   --> G_4   L_6      
     e( 35 - 36) =     12.88274  eV     2   --> G_5   L_4      
     e( 35 - 36) =     12.88274  eV     2   --> G_6   L_5      
     e( 37 - 38) =     14.65722  eV     2   --> G_4   L_6      

 **************************************************************************

 **************************************************************************

                    xk=(   0.00000,   0.00000,   0.05008  )

     Band symmetry, C_3v (3m)   double point group:

     e(  1 -  2) =    -14.94789  eV     2   --> G_5   L_4      
     e(  1 -  2) =    -14.94789  eV     2   --> G_6   L_5      
     e(  3 -  4) =    -14.94299  eV     2   --> G_4   L_6      
     e(  5 -  6) =    -14.88835  eV     2   --> G_5   L_4      
     e(  5 -  6) =    -14.88835  eV     2   --> G_6   L_5      
     e(  7 -  8) =    -14.88595  eV     2   --> G_4   L_6      
     e(  9 - 10) =    -12.02641  eV     2   --> G_4   L_6      
     e( 11 - 12) =    -12.01646  eV     2   --> G_5   L_4      
     e( 11 - 12) =    -12.01646  eV     2   --> G_6   L_5      
     e( 13 - 14) =    -12.01126  eV     2   --> G_4   L_6      
     e( 15 - 16) =    -11.83034  eV     2   --> G_4   L_6      
     e( 17 - 18) =    -11.82496  eV     2   --> G_5   L_4      
     e( 17 - 18) =    -11.82496  eV     2   --> G_6   L_5      
     e( 19 - 20) =    -11.82218  eV     2   --> G_4   L_6      
     e( 21 - 22) =     -3.38962  eV     2   --> G_4   L_6      
     e( 23 - 24) =      1.72296  eV     2   --> G_4   L_6      
     e( 25 - 26) =      6.44944  eV     2   --> G_4   L_6      
     e( 27 - 28) =      8.59669  eV     2   --> G_4   L_6      
     e( 29 - 30) =      8.84737  eV     2   --> G_5   L_4      
     e( 29 - 30) =      8.84737  eV     2   --> G_6   L_5      
     e( 31 - 32) =     10.17021  eV     2   --> G_4   L_6      
     e( 33 - 34) =     12.63299  eV     2   --> G_4   L_6      
     e( 35 - 36) =     12.86272  eV     2   --> G_5   L_4      
     e( 35 - 36) =     12.86272  eV     2   --> G_6   L_5      
     e( 37 - 38) =     14.62091  eV     2   --> G_4   L_6      

 **************************************************************************

 **************************************************************************

                    xk=(   0.00000,   0.00000,   0.06009  )

     Band symmetry, C_3v (3m)   double point group:

     e(  1 -  2) =    -14.94779  eV     2   --> G_5   L_4      
     e(  1 -  2) =    -14.94779  eV     2   --> G_6   L_5      
     e(  3 -  4) =    -14.94285  eV     2   --> G_4   L_6      
     e(  5 -  6) =    -14.88840  eV     2   --> G_5   L_4      
     e(  5 -  6) =    -14.88840  eV     2   --> G_6   L_5      
     e(  7 -  8) =    -14.88601  eV     2   --> G_4   L_6      
     e(  9 - 10) =    -12.02621  eV     2   --> G_4   L_6      
     e( 11 - 12) =    -12.01619  eV     2   --> G_5   L_4      
     e( 11 - 12) =    -12.01619  eV     2   --> G_6   L_5      
     e( 13 - 14) =    -12.01099  eV     2   --> G_4   L_6      
     e( 15 - 16) =    -11.83059  eV     2   --> G_4   L_6      
     e( 17 - 18) =    -11.82529  eV     2   --> G_5   L_4      
     e( 17 - 18) =    -11.82529  eV     2   --> G_6   L_5      
     e( 19 - 20) =    -11.82249  eV     2   --> G_4   L_6      
     e( 21 - 22) =     -3.38390  eV     2   --> G_4   L_6      
     e( 23 - 24) =      1.70699  eV     2   --> G_4   L_6      
     e( 25 - 26) =      6.45576  eV     2   --> G_4   L_6      
     e( 27 - 28) =      8.59845  eV     2   --> G_4   L_6      
     e( 29 - 30) =      8.84931  eV     2   --> G_5   L_4      
     e( 29 - 30) =      8.84931  eV     2   --> G_6   L_5      
     e( 31 - 32) =     10.15798  eV     2   --> G_4   L_6      
     e( 33 - 34) =     12.60503  eV     2   --> G_4   L_6      
     e( 35 - 36) =     12.83861  eV     2   --> G_5   L_4      
     e( 35 - 36) =     12.83861  eV     2   --> G_6   L_5      
     e( 37 - 38) =     14.58342  eV     2   --> G_4   L_6      

 **************************************************************************

 **************************************************************************

                    xk=(   0.00000,   0.00000,   0.07011  )

     Band symmetry, C_3v (3m)   double point group:

     e(  1 -  2) =    -14.94768  eV     2   --> G_5   L_4      
     e(  1 -  2) =    -14.94768  eV     2   --> G_6   L_5      
     e(  3 -  4) =    -14.94270  eV     2   --> G_4   L_6      
     e(  5 -  6) =    -14.88845  eV     2   --> G_5   L_4      
     e(  5 -  6) =    -14.88845  eV     2   --> G_6   L_5      
     e(  7 -  8) =    -14.88608  eV     2   --> G_4   L_6      
     e(  9 - 10) =    -12.02597  eV     2   --> G_4   L_6      
     e( 11 - 12) =    -12.01586  eV     2   --> G_5   L_4      
     e( 11 - 12) =    -12.01586  eV     2   --> G_6   L_5      
     e( 13 - 14) =    -12.01068  eV     2   --> G_4   L_6      
     e( 15 - 16) =    -11.83088  eV     2   --> G_4   L_6      
     e( 17 - 18) =    -11.82568  eV     2   --> G_5   L_4      
     e( 17 - 18) =    -11.82568  eV     2   --> G_6   L_5      
     e( 19 - 20) =    -11.82285  eV     2   --> G_4   L_6      
     e( 21 - 22) =     -3.37714  eV     2   --> G_4   L_6      
     e( 23 - 24) =      1.68825  eV     2   --> G_4   L_6      
     e( 25 - 26) =      6.46315  eV     2   --> G_4   L_6      
     e( 27 - 28) =      8.60047  eV     2   --> G_4   L_6      
     e( 29 - 30) =      8.85161  eV     2   --> G_5   L_4      
     e( 29 - 30) =      8.85161  eV     2   --> G_6   L_5      
     e( 31 - 32) =     10.14370  eV     2   --> G_4   L_6      
     e( 33 - 34) =     12.57271  eV     2   --> G_4   L_6      
     e( 35 - 36) =     12.81059  eV     2   --> G_5   L_4      
     e( 35 - 36) =     12.81059  eV     2   --> G_6   L_5      
     e( 37 - 38) =     14.54621  eV     2   --> G_4   L_6      

 **************************************************************************

 **************************************************************************

                    xk=(   0.00000,   0.00000,   0.08012  )

     Band symmetry, C_3v (3m)   double point group:

     e(  1 -  2) =    -14.94754  eV     2   --> G_5   L_4      
     e(  1 -  2) =    -14.94754  eV     2   --> G_6   L_5      
     e(  3 -  4) =    -14.94252  eV     2   --> G_4   L_6      
     e(  5 -  6) =    -14.88852  eV     2   --> G_5   L_4      
     e(  5 -  6) =    -14.88852  eV     2   --> G_6   L_5      
     e(  7 -  8) =    -14.88615  eV     2   --> G_4   L_6      
     e(  9 - 10) =    -12.02570  eV     2   --> G_4   L_6      
     e( 11 - 12) =    -12.01548  eV     2   --> G_5   L_4      
     e( 11 - 12) =    -12.01548  eV     2   --> G_6   L_5      
     e( 13 - 14) =    -12.01031  eV     2   --> G_4   L_6      
     e( 15 - 16) =    -11.83121  eV     2   --> G_4   L_6      
     e( 17 - 18) =    -11.82613  eV     2   --> G_5   L_4      
     e( 17 - 18) =    -11.82613  eV     2   --> G_6   L_5      
     e( 19 - 20) =    -11.82327  eV     2   --> G_4   L_6      
     e( 21 - 22) =     -3.36934  eV     2   --> G_4   L_6      
     e( 23 - 24) =      1.66680  eV     2   --> G_4   L_6      
     e( 25 - 26) =      6.47159  eV     2   --> G_4   L_6      
     e( 27 - 28) =      8.60271  eV     2   --> G_4   L_6      
     e( 29 - 30) =      8.85428  eV     2   --> G_5   L_4      
     e( 29 - 30) =      8.85428  eV     2   --> G_6   L_5      
     e( 31 - 32) =     10.12748  eV     2   --> G_4   L_6      
     e( 33 - 34) =     12.53636  eV     2   --> G_4   L_6      
     e( 35 - 36) =     12.77890  eV     2   --> G_5   L_4      
     e( 35 - 36) =     12.77890  eV     2   --> G_6   L_5      
     e( 37 - 38) =     14.51032  eV     2   --> G_4   L_6      

 **************************************************************************

 **************************************************************************

                    xk=(   0.00000,   0.00000,   0.09014  )

     Band symmetry, C_3v (3m)   double point group:

     e(  1 -  2) =    -14.94739  eV     2   --> G_5   L_4      
     e(  1 -  2) =    -14.94739  eV     2   --> G_6   L_5      
     e(  3 -  4) =    -14.94231  eV     2   --> G_4   L_6      
     e(  5 -  6) =    -14.88860  eV     2   --> G_5   L_4      
     e(  5 -  6) =    -14.88860  eV     2   --> G_6   L_5      
     e(  7 -  8) =    -14.88624  eV     2   --> G_4   L_6      
     e(  9 - 10) =    -12.02539  eV     2   --> G_4   L_6      
     e( 11 - 12) =    -12.01505  eV     2   --> G_5   L_4      
     e( 11 - 12) =    -12.01505  eV     2   --> G_6   L_5      
     e( 13 - 14) =    -12.00990  eV     2   --> G_4   L_6      
     e( 15 - 16) =    -11.83158  eV     2   --> G_4   L_6      
     e( 17 - 18) =    -11.82664  eV     2   --> G_5   L_4      
     e( 17 - 18) =    -11.82664  eV     2   --> G_6   L_5      
     e( 19 - 20) =    -11.82374  eV     2   --> G_4   L_6      
     e( 21 - 22) =     -3.36052  eV     2   --> G_4   L_6      
     e( 23 - 24) =      1.64271  eV     2   --> G_4   L_6      
     e( 25 - 26) =      6.48104  eV     2   --> G_4   L_6      
     e( 27 - 28) =      8.60515  eV     2   --> G_4   L_6      
     e( 29 - 30) =      8.85732  eV     2   --> G_5   L_4      
     e( 29 - 30) =      8.85732  eV     2   --> G_6   L_5      
     e( 31 - 32) =     10.10941  eV     2   --> G_4   L_6      
     e( 33 - 34) =     12.49630  eV     2   --> G_4   L_6      
     e( 35 - 36) =     12.74376  eV     2   --> G_5   L_4      
     e( 35 - 36) =     12.74376  eV     2   --> G_6   L_5      
     e( 37 - 38) =     14.47647  eV     2   --> G_4   L_6      

 **************************************************************************

 **************************************************************************

                    xk=(   0.00000,   0.00000,   0.10016  )

     Band symmetry, C_3v (3m)   double point group:

     e(  1 -  2) =    -14.94722  eV     2   --> G_5   L_4      
     e(  1 -  2) =    -14.94722  eV     2   --> G_6   L_5      
     e(  3 -  4) =    -14.94209  eV     2   --> G_4   L_6      
     e(  5 -  6) =    -14.88868  eV     2   --> G_5   L_4      
     e(  5 -  6) =    -14.88868  eV     2   --> G_6   L_5      
     e(  7 -  8) =    -14.88634  eV     2   --> G_4   L_6      
     e(  9 - 10) =    -12.02505  eV     2   --> G_4   L_6      
     e( 11 - 12) =    -12.01458  eV     2   --> G_5   L_4      
     e( 11 - 12) =    -12.01458  eV     2   --> G_6   L_5      
     e( 13 - 14) =    -12.00944  eV     2   --> G_4   L_6      
     e( 15 - 16) =    -11.83200  eV     2   --> G_4   L_6      
     e( 17 - 18) =    -11.82721  eV     2   --> G_5   L_4      
     e( 17 - 18) =    -11.82721  eV     2   --> G_6   L_5      
     e( 19 - 20) =    -11.82425  eV     2   --> G_4   L_6      
     e( 21 - 22) =     -3.35067  eV     2   --> G_4   L_6      
     e( 23 - 24) =      1.61606  eV     2   --> G_4   L_6      
     e( 25 - 26) =      6.49147  eV     2   --> G_4   L_6      
     e( 27 - 28) =      8.60773  eV     2   --> G_4   L_6      
     e( 29 - 30) =      8.86074  eV     2   --> G_5   L_4      
     e( 29 - 30) =      8.86074  eV     2   --> G_6   L_5      
     e( 31 - 32) =     10.08960  eV     2   --> G_4   L_6      
     e( 33 - 34) =     12.45287  eV     2   --> G_4   L_6      
     e( 35 - 36) =     12.70542  eV     2   --> G_5   L_4      
     e( 35 - 36) =     12.70542  eV     2   --> G_6   L_5      
     e( 37 - 38) =     14.44517  eV     2   --> G_4   L_6      

 **************************************************************************

 **************************************************************************

                    xk=(   0.00000,   0.00000,   0.11017  )

     Band symmetry, C_3v (3m)   double point group:

     e(  1 -  2) =    -14.94704  eV     2   --> G_5   L_4      
     e(  1 -  2) =    -14.94704  eV     2   --> G_6   L_5      
     e(  3 -  4) =    -14.94184  eV     2   --> G_4   L_6      
     e(  5 -  6) =    -14.88877  eV     2   --> G_5   L_4      
     e(  5 -  6) =    -14.88877  eV     2   --> G_6   L_5      
     e(  7 -  8) =    -14.88645  eV     2   --> G_4   L_6      
     e(  9 - 10) =    -12.02467  eV     2   --> G_4   L_6      
     e( 11 - 12) =    -12.01405  eV     2   --> G_5   L_4      
     e( 11 - 12) =    -12.01405  eV     2   --> G_6   L_5      
     e( 13 - 14) =    -12.00894  eV     2   --> G_4   L_6      
     e( 15 - 16) =    -11.83246  eV     2   --> G_4   L_6      
     e( 17 - 18) =    -11.82783  eV     2   --> G_5   L_4      
     e( 17 - 18) =    -11.82783  eV     2   --> G_6   L_5      
     e( 19 - 20) =    -11.82482  eV     2   --> G_4   L_6      
     e( 21 - 22) =     -3.33980  eV     2   --> G_4   L_6      
     e( 23 - 24) =      1.58692  eV     2   --> G_4   L_6      
     e( 25 - 26) =      6.50284  eV     2   --> G_4   L_6      
     e( 27 - 28) =      8.61043  eV     2   --> G_4   L_6      
     e( 29 - 30) =      8.86455  eV     2   --> G_5   L_4      
     e( 29 - 30) =      8.86455  eV     2   --> G_6   L_5      
     e( 31 - 32) =     10.06816  eV     2   --> G_4   L_6      
     e( 33 - 34) =     12.40638  eV     2   --> G_4   L_6      
     e( 35 - 36) =     12.66412  eV     2   --> G_5   L_4      
     e( 35 - 36) =     12.66412  eV     2   --> G_6   L_5      
     e( 37 - 38) =     14.41676  eV     2   --> G_4   L_6      

 **************************************************************************

 **************************************************************************

                    xk=(   0.00000,   0.00000,   0.12019  )

     Band symmetry, C_3v (3m)   double point group:

     e(  1 -  2) =    -14.94684  eV     2   --> G_5   L_4      
     e(  1 -  2) =    -14.94684  eV     2   --> G_6   L_5      
     e(  3 -  4) =    -14.94157  eV     2   --> G_4   L_6      
     e(  5 -  6) =    -14.88887  eV     2   --> G_5   L_4      
     e(  5 -  6) =    -14.88887  eV     2   --> G_6   L_5      
     e(  7 -  8) =    -14.88657  eV     2   --> G_4   L_6      
     e(  9 - 10) =    -12.02426  eV     2   --> G_4   L_6      
     e( 11 - 12) =    -12.01348  eV     2   --> G_5   L_4      
     e( 11 - 12) =    -12.01348  eV     2   --> G_6   L_5      
     e( 13 - 14) =    -12.00839  eV     2   --> G_4   L_6      
     e( 15 - 16) =    -11.83297  eV     2   --> G_4   L_6      
     e( 17 - 18) =    -11.82851  eV     2   --> G_5   L_4      
     e( 17 - 18) =    -11.82851  eV     2   --> G_6   L_5      
     e( 19 - 20) =    -11.82544  eV     2   --> G_4   L_6      
     e( 21 - 22) =     -3.32791  eV     2   --> G_4   L_6      
     e( 23 - 24) =      1.55539  eV     2   --> G_4   L_6      
     e( 25 - 26) =      6.51511  eV     2   --> G_4   L_6      
     e( 27 - 28) =      8.61317  eV     2   --> G_4   L_6      
     e( 29 - 30) =      8.86875  eV     2   --> G_5   L_4      
     e( 29 - 30) =      8.86875  eV     2   --> G_6   L_5      
     e( 31 - 32) =     10.04524  eV     2   --> G_4   L_6      
     e( 33 - 34) =     12.35718  eV     2   --> G_4   L_6      
     e( 35 - 36) =     12.62013  eV     2   --> G_5   L_4      
     e( 35 - 36) =     12.62013  eV     2   --> G_6   L_5      
     e( 37 - 38) =     14.39151  eV     2   --> G_4   L_6      

 **************************************************************************

 **************************************************************************

                    xk=(   0.00000,   0.00000,   0.13020  )

     Band symmetry, C_3v (3m)   double point group:

     e(  1 -  2) =    -14.94662  eV     2   --> G_5   L_4      
     e(  1 -  2) =    -14.94662  eV     2   --> G_6   L_5      
     e(  3 -  4) =    -14.94128  eV     2   --> G_4   L_6      
     e(  5 -  6) =    -14.88898  eV     2   --> G_5   L_4      
     e(  5 -  6) =    -14.88898  eV     2   --> G_6   L_5      
     e(  7 -  8) =    -14.88670  eV     2   --> G_4   L_6      
     e(  9 - 10) =    -12.02381  eV     2   --> G_4   L_6      
     e( 11 - 12) =    -12.01286  eV     2   --> G_5   L_4      
     e( 11 - 12) =    -12.01286  eV     2   --> G_6   L_5      
     e( 13 - 14) =    -12.00780  eV     2   --> G_4   L_6      
     e( 15 - 16) =    -11.83351  eV     2   --> G_4   L_6      
     e( 17 - 18) =    -11.82925  eV     2   --> G_5   L_4      
     e( 17 - 18) =    -11.82925  eV     2   --> G_6   L_5      
     e( 19 - 20) =    -11.82611  eV     2   --> G_4   L_6      
     e( 21 - 22) =     -3.31501  eV     2   --> G_4   L_6      
     e( 23 - 24) =      1.52157  eV     2   --> G_4   L_6      
     e( 25 - 26) =      6.52824  eV     2   --> G_4   L_6      
     e( 27 - 28) =      8.61592  eV     2   --> G_4   L_6      
     e( 29 - 30) =      8.87334  eV     2   --> G_5   L_4      
     e( 29 - 30) =      8.87334  eV     2   --> G_6   L_5      
     e( 31 - 32) =     10.02095  eV     2   --> G_4   L_6      
     e( 33 - 34) =     12.30557  eV     2   --> G_4   L_6      
     e( 35 - 36) =     12.57368  eV     2   --> G_5   L_4      
     e( 35 - 36) =     12.57368  eV     2   --> G_6   L_5      
     e( 37 - 38) =     14.36961  eV     2   --> G_4   L_6      

 **************************************************************************

 **************************************************************************

                    xk=(   0.00000,   0.00000,   0.14022  )

     Band symmetry, C_3v (3m)   double point group:

     e(  1 -  2) =    -14.94639  eV     2   --> G_5   L_4      
     e(  1 -  2) =    -14.94639  eV     2   --> G_6   L_5      
     e(  3 -  4) =    -14.94096  eV     2   --> G_4   L_6      
     e(  5 -  6) =    -14.88910  eV     2   --> G_5   L_4      
     e(  5 -  6) =    -14.88910  eV     2   --> G_6   L_5      
     e(  7 -  8) =    -14.88684  eV     2   --> G_4   L_6      
     e(  9 - 10) =    -12.02333  eV     2   --> G_4   L_6      
     e( 11 - 12) =    -12.01219  eV     2   --> G_5   L_4      
     e( 11 - 12) =    -12.01219  eV     2   --> G_6   L_5      
     e( 13 - 14) =    -12.00717  eV     2   --> G_4   L_6      
     e( 15 - 16) =    -11.83410  eV     2   --> G_4   L_6      
     e( 17 - 18) =    -11.83004  eV     2   --> G_5   L_4      
     e( 17 - 18) =    -11.83004  eV     2   --> G_6   L_5      
     e( 19 - 20) =    -11.82682  eV     2   --> G_4   L_6      
     e( 21 - 22) =     -3.30111  eV     2   --> G_4   L_6      
     e( 23 - 24) =      1.48554  eV     2   --> G_4   L_6      
     e( 25 - 26) =      6.54218  eV     2   --> G_4   L_6      
     e( 27 - 28) =      8.61862  eV     2   --> G_4   L_6      
     e( 29 - 30) =      8.87835  eV     2   --> G_5   L_4      
     e( 29 - 30) =      8.87835  eV     2   --> G_6   L_5      
     e( 31 - 32) =      9.99543  eV     2   --> G_4   L_6      
     e( 33 - 34) =     12.25186  eV     2   --> G_4   L_6      
     e( 35 - 36) =     12.52504  eV     2   --> G_5   L_4      
     e( 35 - 36) =     12.52504  eV     2   --> G_6   L_5      
     e( 37 - 38) =     14.35118  eV     2   --> G_4   L_6      

 **************************************************************************

 **************************************************************************

                    xk=(   0.00000,   0.00000,   0.15023  )

     Band symmetry, C_3v (3m)   double point group:

     e(  1 -  2) =    -14.94615  eV     2   --> G_5   L_4      
     e(  1 -  2) =    -14.94615  eV     2   --> G_6   L_5      
     e(  3 -  4) =    -14.94063  eV     2   --> G_4   L_6      
     e(  5 -  6) =    -14.88923  eV     2   --> G_5   L_4      
     e(  5 -  6) =    -14.88923  eV     2   --> G_6   L_5      
     e(  7 -  8) =    -14.88699  eV     2   --> G_4   L_6      
     e(  9 - 10) =    -12.02281  eV     2   --> G_4   L_6      
     e( 11 - 12) =    -12.01148  eV     2   --> G_5   L_4      
     e( 11 - 12) =    -12.01148  eV     2   --> G_6   L_5      
     e( 13 - 14) =    -12.00649  eV     2   --> G_4   L_6      
     e( 15 - 16) =    -11.83474  eV     2   --> G_4   L_6      
     e( 17 - 18) =    -11.83088  eV     2   --> G_5   L_4      
     e( 17 - 18) =    -11.83088  eV     2   --> G_6   L_5      
     e( 19 - 20) =    -11.82758  eV     2   --> G_4   L_6      
     e( 21 - 22) =     -3.28620  eV     2   --> G_4   L_6      
     e( 23 - 24) =      1.44741  eV     2   --> G_4   L_6      
     e( 25 - 26) =      6.55689  eV     2   --> G_4   L_6      
     e( 27 - 28) =      8.62120  eV     2   --> G_4   L_6      
     e( 29 - 30) =      8.88377  eV     2   --> G_5   L_4      
     e( 29 - 30) =      8.88377  eV     2   --> G_6   L_5      
     e( 31 - 32) =      9.96884  eV     2   --> G_4   L_6      
     e( 33 - 34) =     12.19632  eV     2   --> G_4   L_6      
     e( 35 - 36) =     12.47442  eV     2   --> G_5   L_4      
     e( 35 - 36) =     12.47442  eV     2   --> G_6   L_5      
     e( 37 - 38) =     14.33633  eV     2   --> G_4   L_6      

 **************************************************************************

 **************************************************************************

                    xk=(   0.00000,   0.00000,   0.16025  )

     Band symmetry, C_3v (3m)   double point group:

     e(  1 -  2) =    -14.94588  eV     2   --> G_5   L_4      
     e(  1 -  2) =    -14.94588  eV     2   --> G_6   L_5      
     e(  3 -  4) =    -14.94028  eV     2   --> G_4   L_6      
     e(  5 -  6) =    -14.88936  eV     2   --> G_5   L_4      
     e(  5 -  6) =    -14.88936  eV     2   --> G_6   L_5      
     e(  7 -  8) =    -14.88715  eV     2   --> G_4   L_6      
     e(  9 - 10) =    -12.02226  eV     2   --> G_4   L_6      
     e( 11 - 12) =    -12.01072  eV     2   --> G_5   L_4      
     e( 11 - 12) =    -12.01072  eV     2   --> G_6   L_5      
     e( 13 - 14) =    -12.00577  eV     2   --> G_4   L_6      
     e( 15 - 16) =    -11.83541  eV     2   --> G_4   L_6      
     e( 17 - 18) =    -11.83177  eV     2   --> G_5   L_4      
     e( 17 - 18) =    -11.83177  eV     2   --> G_6   L_5      
     e( 19 - 20) =    -11.82838  eV     2   --> G_4   L_6      
     e( 21 - 22) =     -3.27031  eV     2   --> G_4   L_6      
     e( 23 - 24) =      1.40728  eV     2   --> G_4   L_6      
     e( 25 - 26) =      6.57235  eV     2   --> G_4   L_6      
     e( 27 - 28) =      8.62360  eV     2   --> G_4   L_6      
     e( 29 - 30) =      8.88962  eV     2   --> G_5   L_4      
     e( 29 - 30) =      8.88962  eV     2   --> G_6   L_5      
     e( 31 - 32) =      9.94132  eV     2   --> G_4   L_6      
     e( 33 - 34) =     12.13922  eV     2   --> G_4   L_6      
     e( 35 - 36) =     12.42207  eV     2   --> G_5   L_4      
     e( 35 - 36) =     12.42207  eV     2   --> G_6   L_5      
     e( 37 - 38) =     14.32511  eV     2   --> G_4   L_6      

 **************************************************************************

 **************************************************************************

                    xk=(   0.00000,   0.00000,   0.17026  )

     Band symmetry, C_3v (3m)   double point group:

     e(  1 -  2) =    -14.94561  eV     2   --> G_5   L_4      
     e(  1 -  2) =    -14.94561  eV     2   --> G_6   L_5      
     e(  3 -  4) =    -14.93990  eV     2   --> G_4   L_6      
     e(  5 -  6) =    -14.88951  eV     2   --> G_5   L_4      
     e(  5 -  6) =    -14.88951  eV     2   --> G_6   L_5      
     e(  7 -  8) =    -14.88733  eV     2   --> G_4   L_6      
     e(  9 - 10) =    -12.02168  eV     2   --> G_4   L_6      
     e( 11 - 12) =    -12.00992  eV     2   --> G_5   L_4      
     e( 11 - 12) =    -12.00992  eV     2   --> G_6   L_5      
     e( 13 - 14) =    -12.00502  eV     2   --> G_4   L_6      
     e( 15 - 16) =    -11.83612  eV     2   --> G_4   L_6      
     e( 17 - 18) =    -11.83272  eV     2   --> G_5   L_4      
     e( 17 - 18) =    -11.83272  eV     2   --> G_6   L_5      
     e( 19 - 20) =    -11.82923  eV     2   --> G_4   L_6      
     e( 21 - 22) =     -3.25343  eV     2   --> G_4   L_6      
     e( 23 - 24) =      1.36525  eV     2   --> G_4   L_6      
     e( 25 - 26) =      6.58849  eV     2   --> G_4   L_6      
     e( 27 - 28) =      8.62574  eV     2   --> G_4   L_6      
     e( 29 - 30) =      8.89590  eV     2   --> G_5   L_4      
     e( 29 - 30) =      8.89590  eV     2   --> G_6   L_5      
     e( 31 - 32) =      9.91303  eV     2   --> G_4   L_6      
     e( 33 - 34) =     12.08081  eV     2   --> G_4   L_6      
     e( 35 - 36) =     12.36819  eV     2   --> G_5   L_4      
     e( 35 - 36) =     12.36819  eV     2   --> G_6   L_5      
     e( 37 - 38) =     14.31757  eV     2   --> G_4   L_6      

 **************************************************************************

 **************************************************************************

                    xk=(   0.00000,   0.00000,   0.18028  )

     Band symmetry, C_3v (3m)   double point group:

     e(  1 -  2) =    -14.94532  eV     2   --> G_5   L_4      
     e(  1 -  2) =    -14.94532  eV     2   --> G_6   L_5      
     e(  3 -  4) =    -14.93951  eV     2   --> G_4   L_6      
     e(  5 -  6) =    -14.88966  eV     2   --> G_5   L_4      
     e(  5 -  6) =    -14.88966  eV     2   --> G_6   L_5      
     e(  7 -  8) =    -14.88751  eV     2   --> G_4   L_6      
     e(  9 - 10) =    -12.02107  eV     2   --> G_4   L_6      
     e( 11 - 12) =    -12.00907  eV     2   --> G_5   L_4      
     e( 11 - 12) =    -12.00907  eV     2   --> G_6   L_5      
     e( 13 - 14) =    -12.00422  eV     2   --> G_4   L_6      
     e( 15 - 16) =    -11.83688  eV     2   --> G_4   L_6      
     e( 17 - 18) =    -11.83372  eV     2   --> G_5   L_4      
     e( 17 - 18) =    -11.83372  eV     2   --> G_6   L_5      
     e( 19 - 20) =    -11.83011  eV     2   --> G_4   L_6      
     e( 21 - 22) =     -3.23557  eV     2   --> G_4   L_6      
     e( 23 - 24) =      1.32143  eV     2   --> G_4   L_6      
     e( 25 - 26) =      6.60530  eV     2   --> G_4   L_6      
     e( 27 - 28) =      8.62756  eV     2   --> G_4   L_6      
     e( 29 - 30) =      8.90262  eV     2   --> G_5   L_4      
     e( 29 - 30) =      8.90262  eV     2   --> G_6   L_5      
     e( 31 - 32) =      9.88413  eV     2   --> G_4   L_6      
     e( 33 - 34) =     12.02131  eV     2   --> G_4   L_6      
     e( 35 - 36) =     12.31300  eV     2   --> G_5   L_4      
     e( 35 - 36) =     12.31300  eV     2   --> G_6   L_5      
     e( 37 - 38) =     14.31372  eV     2   --> G_4   L_6      

 **************************************************************************

 **************************************************************************

                    xk=(   0.00000,   0.00000,   0.19030  )

     Band symmetry, C_3v (3m)   double point group:

     e(  1 -  2) =    -14.94502  eV     2   --> G_5   L_4      
     e(  1 -  2) =    -14.94502  eV     2   --> G_6   L_5      
     e(  3 -  4) =    -14.93909  eV     2   --> G_4   L_6      
     e(  5 -  6) =    -14.88982  eV     2   --> G_5   L_4      
     e(  5 -  6) =    -14.88982  eV     2   --> G_6   L_5      
     e(  7 -  8) =    -14.88770  eV     2   --> G_4   L_6      
     e(  9 - 10) =    -12.02043  eV     2   --> G_4   L_6      
     e( 11 - 12) =    -12.00818  eV     2   --> G_5   L_4      
     e( 11 - 12) =    -12.00818  eV     2   --> G_6   L_5      
     e( 13 - 14) =    -12.00339  eV     2   --> G_4   L_6      
     e( 15 - 16) =    -11.83767  eV     2   --> G_4   L_6      
     e( 17 - 18) =    -11.83477  eV     2   --> G_5   L_4      
     e( 17 - 18) =    -11.83477  eV     2   --> G_6   L_5      
     e( 19 - 20) =    -11.83103  eV     2   --> G_4   L_6      
     e( 21 - 22) =     -3.21675  eV     2   --> G_4   L_6      
     e( 23 - 24) =      1.27592  eV     2   --> G_4   L_6      
     e( 25 - 26) =      6.62273  eV     2   --> G_4   L_6      
     e( 27 - 28) =      8.62896  eV     2   --> G_4   L_6      
     e( 29 - 30) =      8.90980  eV     2   --> G_5   L_4      
     e( 29 - 30) =      8.90980  eV     2   --> G_6   L_5      
     e( 31 - 32) =      9.85477  eV     2   --> G_4   L_6      
     e( 33 - 34) =     11.96095  eV     2   --> G_4   L_6      
     e( 35 - 36) =     12.25667  eV     2   --> G_5   L_4      
     e( 35 - 36) =     12.25667  eV     2   --> G_6   L_5      
     e( 37 - 38) =     14.31358  eV     2   --> G_4   L_6      

 **************************************************************************

 **************************************************************************

                    xk=(   0.00000,   0.00000,   0.20031  )

     Band symmetry, C_3v (3m)   double point group:

     e(  1 -  2) =    -14.94470  eV     2   --> G_5   L_4      
     e(  1 -  2) =    -14.94470  eV     2   --> G_6   L_5      
     e(  3 -  4) =    -14.93866  eV     2   --> G_4   L_6      
     e(  5 -  6) =    -14.88998  eV     2   --> G_5   L_4      
     e(  5 -  6) =    -14.88998  eV     2   --> G_6   L_5      
     e(  7 -  8) =    -14.88791  eV     2   --> G_4   L_6      
     e(  9 - 10) =    -12.01975  eV     2   --> G_4   L_6      
     e( 11 - 12) =    -12.00724  eV     2   --> G_5   L_4      
     e( 11 - 12) =    -12.00724  eV     2   --> G_6   L_5      
     e( 13 - 14) =    -12.00252  eV     2   --> G_4   L_6      
     e( 15 - 16) =    -11.83850  eV     2   --> G_4   L_6      
     e( 17 - 18) =    -11.83586  eV     2   --> G_5   L_4      
     e( 17 - 18) =    -11.83586  eV     2   --> G_6   L_5      
     e( 19 - 20) =    -11.83198  eV     2   --> G_4   L_6      
     e( 21 - 22) =     -3.19698  eV     2   --> G_4   L_6      
     e( 23 - 24) =      1.22883  eV     2   --> G_4   L_6      
     e( 25 - 26) =      6.64075  eV     2   --> G_4   L_6      
     e( 27 - 28) =      8.62988  eV     2   --> G_4   L_6      
     e( 29 - 30) =      8.91743  eV     2   --> G_5   L_4      
     e( 29 - 30) =      8.91743  eV     2   --> G_6   L_5      
     e( 31 - 32) =      9.82514  eV     2   --> G_4   L_6      
     e( 33 - 34) =     11.89990  eV     2   --> G_4   L_6      
     e( 35 - 36) =     12.19940  eV     2   --> G_5   L_4      
     e( 35 - 36) =     12.19940  eV     2   --> G_6   L_5      
     e( 37 - 38) =     14.31714  eV     2   --> G_4   L_6      

 **************************************************************************

 **************************************************************************

                    xk=(   0.00000,   0.00000,   0.21033  )

     Band symmetry, C_3v (3m)   double point group:

     e(  1 -  2) =    -14.94438  eV     2   --> G_5   L_4      
     e(  1 -  2) =    -14.94438  eV     2   --> G_6   L_5      
     e(  3 -  4) =    -14.93821  eV     2   --> G_4   L_6      
     e(  5 -  6) =    -14.89016  eV     2   --> G_5   L_4      
     e(  5 -  6) =    -14.89016  eV     2   --> G_6   L_5      
     e(  7 -  8) =    -14.88812  eV     2   --> G_4   L_6      
     e(  9 - 10) =    -12.01905  eV     2   --> G_4   L_6      
     e( 11 - 12) =    -12.00627  eV     2   --> G_5   L_4      
     e( 11 - 12) =    -12.00627  eV     2   --> G_6   L_5      
     e( 13 - 14) =    -12.00161  eV     2   --> G_4   L_6      
     e( 15 - 16) =    -11.83937  eV     2   --> G_4   L_6      
     e( 17 - 18) =    -11.83700  eV     2   --> G_5   L_4      
     e( 17 - 18) =    -11.83700  eV     2   --> G_6   L_5      
     e( 19 - 20) =    -11.83297  eV     2   --> G_4   L_6      
     e( 21 - 22) =     -3.17626  eV     2   --> G_4   L_6      
     e( 23 - 24) =      1.18026  eV     2   --> G_4   L_6      
     e( 25 - 26) =      6.65933  eV     2   --> G_4   L_6      
     e( 27 - 28) =      8.63021  eV     2   --> G_4   L_6      
     e( 29 - 30) =      8.92553  eV     2   --> G_5   L_4      
     e( 29 - 30) =      8.92553  eV     2   --> G_6   L_5      
     e( 31 - 32) =      9.79539  eV     2   --> G_4   L_6      
     e( 33 - 34) =     11.83836  eV     2   --> G_4   L_6      
     e( 35 - 36) =     12.14135  eV     2   --> G_5   L_4      
     e( 35 - 36) =     12.14135  eV     2   --> G_6   L_5      
     e( 37 - 38) =     14.32439  eV     2   --> G_4   L_6      

 **************************************************************************

 **************************************************************************

                    xk=(   0.00000,   0.00000,   0.22034  )

     Band symmetry, C_3v (3m)   double point group:

     e(  1 -  2) =    -14.94404  eV     2   --> G_5   L_4      
     e(  1 -  2) =    -14.94404  eV     2   --> G_6   L_5      
     e(  3 -  4) =    -14.93775  eV     2   --> G_4   L_6      
     e(  5 -  6) =    -14.89034  eV     2   --> G_5   L_4      
     e(  5 -  6) =    -14.89034  eV     2   --> G_6   L_5      
     e(  7 -  8) =    -14.88834  eV     2   --> G_4   L_6      
     e(  9 - 10) =    -12.01832  eV     2   --> G_4   L_6      
     e( 11 - 12) =    -12.00525  eV     2   --> G_5   L_4      
     e( 11 - 12) =    -12.00525  eV     2   --> G_6   L_5      
     e( 13 - 14) =    -12.00068  eV     2   --> G_4   L_6      
     e( 15 - 16) =    -11.84028  eV     2   --> G_4   L_6      
     e( 17 - 18) =    -11.83819  eV     2   --> G_5   L_4      
     e( 17 - 18) =    -11.83819  eV     2   --> G_6   L_5      
     e( 19 - 20) =    -11.83399  eV     2   --> G_4   L_6      
     e( 21 - 22) =     -3.15461  eV     2   --> G_4   L_6      
     e( 23 - 24) =      1.13033  eV     2   --> G_4   L_6      
     e( 25 - 26) =      6.67843  eV     2   --> G_4   L_6      
     e( 27 - 28) =      8.62986  eV     2   --> G_4   L_6      
     e( 29 - 30) =      8.93411  eV     2   --> G_5   L_4      
     e( 29 - 30) =      8.93411  eV     2   --> G_6   L_5      
     e( 31 - 32) =      9.76571  eV     2   --> G_4   L_6      
     e( 33 - 34) =     11.77648  eV     2   --> G_4   L_6      
     e( 35 - 36) =     12.08267  eV     2   --> G_5   L_4      
     e( 35 - 36) =     12.08267  eV     2   --> G_6   L_5      
     e( 37 - 38) =     14.33531  eV     2   --> G_4   L_6      

 **************************************************************************

 **************************************************************************

                    xk=(   0.00000,   0.00000,   0.23036  )

     Band symmetry, C_3v (3m)   double point group:

     e(  1 -  2) =    -14.94369  eV     2   --> G_5   L_4      
     e(  1 -  2) =    -14.94369  eV     2   --> G_6   L_5      
     e(  3 -  4) =    -14.93727  eV     2   --> G_4   L_6      
     e(  5 -  6) =    -14.89053  eV     2   --> G_5   L_4      
     e(  5 -  6) =    -14.89053  eV     2   --> G_6   L_5      
     e(  7 -  8) =    -14.88858  eV     2   --> G_4   L_6      
     e(  9 - 10) =    -12.01756  eV     2   --> G_4   L_6      
     e( 11 - 12) =    -12.00420  eV     2   --> G_5   L_4      
     e( 11 - 12) =    -12.00420  eV     2   --> G_6   L_5      
     e( 13 - 14) =    -11.99971  eV     2   --> G_4   L_6      
     e( 15 - 16) =    -11.84123  eV     2   --> G_4   L_6      
     e( 17 - 18) =    -11.83942  eV     2   --> G_5   L_4      
     e( 17 - 18) =    -11.83942  eV     2   --> G_6   L_5      
     e( 19 - 20) =    -11.83503  eV     2   --> G_4   L_6      
     e( 21 - 22) =     -3.13204  eV     2   --> G_4   L_6      
     e( 23 - 24) =      1.07913  eV     2   --> G_4   L_6      
     e( 25 - 26) =      6.69804  eV     2   --> G_4   L_6      
     e( 27 - 28) =      8.62873  eV     2   --> G_4   L_6      
     e( 29 - 30) =      8.94317  eV     2   --> G_5   L_4      
     e( 29 - 30) =      8.94317  eV     2   --> G_6   L_5      
     e( 31 - 32) =      9.73628  eV     2   --> G_4   L_6      
     e( 33 - 34) =     11.71442  eV     2   --> G_4   L_6      
     e( 35 - 36) =     12.02352  eV     2   --> G_5   L_4      
     e( 35 - 36) =     12.02352  eV     2   --> G_6   L_5      
     e( 37 - 38) =     14.34986  eV     2   --> G_4   L_6      

 **************************************************************************

 **************************************************************************

                    xk=(   0.00000,   0.00000,   0.24037  )

     Band symmetry, C_3v (3m)   double point group:

     e(  1 -  2) =    -14.94333  eV     2   --> G_5   L_4      
     e(  1 -  2) =    -14.94333  eV     2   --> G_6   L_5      
     e(  3 -  4) =    -14.93677  eV     2   --> G_4   L_6      
     e(  5 -  6) =    -14.89072  eV     2   --> G_5   L_4      
     e(  5 -  6) =    -14.89072  eV     2   --> G_6   L_5      
     e(  7 -  8) =    -14.88882  eV     2   --> G_4   L_6      
     e(  9 - 10) =    -12.01678  eV     2   --> G_4   L_6      
     e( 11 - 12) =    -12.00311  eV     2   --> G_5   L_4      
     e( 11 - 12) =    -12.00311  eV     2   --> G_6   L_5      
     e( 13 - 14) =    -11.99871  eV     2   --> G_4   L_6      
     e( 15 - 16) =    -11.84221  eV     2   --> G_4   L_6      
     e( 17 - 18) =    -11.84069  eV     2   --> G_5   L_4      
     e( 17 - 18) =    -11.84069  eV     2   --> G_6   L_5      
     e( 19 - 20) =    -11.83610  eV     2   --> G_4   L_6      
     e( 21 - 22) =     -3.10857  eV     2   --> G_4   L_6      
     e( 23 - 24) =      1.02677  eV     2   --> G_4   L_6      
     e( 25 - 26) =      6.71813  eV     2   --> G_4   L_6      
     e( 27 - 28) =      8.62672  eV     2   --> G_4   L_6      
     e( 29 - 30) =      8.95273  eV     2   --> G_5   L_4      
     e( 29 - 30) =      8.95273  eV     2   --> G_6   L_5      
     e( 31 - 32) =      9.70728  eV     2   --> G_4   L_6      
     e( 33 - 34) =     11.65230  eV     2   --> G_4   L_6      
     e( 35 - 36) =     11.96402  eV     2   --> G_5   L_4      
     e( 35 - 36) =     11.96402  eV     2   --> G_6   L_5      
     e( 37 - 38) =     14.36801  eV     2   --> G_4   L_6      

 **************************************************************************

 **************************************************************************

                    xk=(   0.00000,   0.00000,   0.25039  )

     Band symmetry, C_3v (3m)   double point group:

     e(  1 -  2) =    -14.94296  eV     2   --> G_5   L_4      
     e(  1 -  2) =    -14.94296  eV     2   --> G_6   L_5      
     e(  3 -  4) =    -14.93626  eV     2   --> G_4   L_6      
     e(  5 -  6) =    -14.89092  eV     2   --> G_5   L_4      
     e(  5 -  6) =    -14.89092  eV     2   --> G_6   L_5      
     e(  7 -  8) =    -14.88908  eV     2   --> G_4   L_6      
     e(  9 - 10) =    -12.01597  eV     2   --> G_4   L_6      
     e( 11 - 12) =    -12.00198  eV     2   --> G_5   L_4      
     e( 11 - 12) =    -12.00198  eV     2   --> G_6   L_5      
     e( 13 - 14) =    -11.99769  eV     2   --> G_4   L_6      
     e( 15 - 16) =    -11.84323  eV     2   --> G_4   L_6      
     e( 17 - 18) =    -11.84200  eV     2   --> G_5   L_4      
     e( 17 - 18) =    -11.84200  eV     2   --> G_6   L_5      
     e( 19 - 20) =    -11.83720  eV     2   --> G_4   L_6      
     e( 21 - 22) =     -3.08420  eV     2   --> G_4   L_6      
     e( 23 - 24) =      0.97335  eV     2   --> G_4   L_6      
     e( 25 - 26) =      6.73867  eV     2   --> G_4   L_6      
     e( 27 - 28) =      8.62372  eV     2   --> G_4   L_6      
     e( 29 - 30) =      8.96278  eV     2   --> G_5   L_4      
     e( 29 - 30) =      8.96278  eV     2   --> G_6   L_5      
     e( 31 - 32) =      9.67889  eV     2   --> G_4   L_6      
     e( 33 - 34) =     11.59025  eV     2   --> G_4   L_6      
     e( 35 - 36) =     11.90430  eV     2   --> G_5   L_4      
     e( 35 - 36) =     11.90430  eV     2   --> G_6   L_5      
     e( 37 - 38) =     14.38972  eV     2   --> G_4   L_6      

 **************************************************************************

 **************************************************************************

                    xk=(   0.00000,   0.00000,   0.26040  )

     Band symmetry, C_3v (3m)   double point group:

     e(  1 -  2) =    -14.94259  eV     2   --> G_5   L_4      
     e(  1 -  2) =    -14.94259  eV     2   --> G_6   L_5      
     e(  3 -  4) =    -14.93574  eV     2   --> G_4   L_6      
     e(  5 -  6) =    -14.89113  eV     2   --> G_5   L_4      
     e(  5 -  6) =    -14.89113  eV     2   --> G_6   L_5      
     e(  7 -  8) =    -14.88934  eV     2   --> G_4   L_6      
     e(  9 - 10) =    -12.01514  eV     2   --> G_4   L_6      
     e( 11 - 12) =    -12.00082  eV     2   --> G_5   L_4      
     e( 11 - 12) =    -12.00082  eV     2   --> G_6   L_5      
     e( 13 - 14) =    -11.99663  eV     2   --> G_4   L_6      
     e( 15 - 16) =    -11.84427  eV     2   --> G_4   L_6      
     e( 17 - 18) =    -11.84335  eV     2   --> G_5   L_4      
     e( 17 - 18) =    -11.84335  eV     2   --> G_6   L_5      
     e( 19 - 20) =    -11.83831  eV     2   --> G_4   L_6      
     e( 21 - 22) =     -3.05897  eV     2   --> G_4   L_6      
     e( 23 - 24) =      0.91898  eV     2   --> G_4   L_6      
     e( 25 - 26) =      6.75965  eV     2   --> G_4   L_6      
     e( 27 - 28) =      8.61962  eV     2   --> G_4   L_6      
     e( 29 - 30) =      8.97334  eV     2   --> G_5   L_4      
     e( 29 - 30) =      8.97334  eV     2   --> G_6   L_5      
     e( 31 - 32) =      9.65130  eV     2   --> G_4   L_6      
     e( 33 - 34) =     11.52840  eV     2   --> G_4   L_6      
     e( 35 - 36) =     11.84448  eV     2   --> G_5   L_4      
     e( 35 - 36) =     11.84448  eV     2   --> G_6   L_5      
     e( 37 - 38) =     14.41493  eV     2   --> G_4   L_6      

 **************************************************************************

 **************************************************************************

                    xk=(   0.00000,   0.00000,   0.27042  )

     Band symmetry, C_3v (3m)   double point group:

     e(  1 -  2) =    -14.94220  eV     2   --> G_5   L_4      
     e(  1 -  2) =    -14.94220  eV     2   --> G_6   L_5      
     e(  3 -  4) =    -14.93520  eV     2   --> G_4   L_6      
     e(  5 -  6) =    -14.89134  eV     2   --> G_5   L_4      
     e(  5 -  6) =    -14.89134  eV     2   --> G_6   L_5      
     e(  7 -  8) =    -14.88962  eV     2   --> G_4   L_6      
     e(  9 - 10) =    -12.01429  eV     2   --> G_4   L_6      
     e( 11 - 12) =    -11.99962  eV     2   --> G_5   L_4      
     e( 11 - 12) =    -11.99962  eV     2   --> G_6   L_5      
     e( 13 - 14) =    -11.99556  eV     2   --> G_4   L_6      
     e( 15 - 16) =    -11.84535  eV     2   --> G_4   L_6      
     e( 17 - 18) =    -11.84473  eV     2   --> G_5   L_4      
     e( 17 - 18) =    -11.84473  eV     2   --> G_6   L_5      
     e( 19 - 20) =    -11.83945  eV     2   --> G_4   L_6      
     e( 21 - 22) =     -3.03289  eV     2   --> G_4   L_6      
     e( 23 - 24) =      0.86376  eV     2   --> G_4   L_6      
     e( 25 - 26) =      6.78104  eV     2   --> G_4   L_6      
     e( 27 - 28) =      8.61432  eV     2   --> G_4   L_6      
     e( 29 - 30) =      8.98441  eV     2   --> G_5   L_4      
     e( 29 - 30) =      8.98441  eV     2   --> G_6   L_5      
     e( 31 - 32) =      9.62470  eV     2   --> G_4   L_6      
     e( 33 - 34) =     11.46683  eV     2   --> G_4   L_6      
     e( 35 - 36) =     11.78467  eV     2   --> G_5   L_4      
     e( 35 - 36) =     11.78467  eV     2   --> G_6   L_5      
     e( 37 - 38) =     14.44360  eV     2   --> G_4   L_6      

 **************************************************************************

 **************************************************************************

                    xk=(   0.00000,   0.00000,   0.28044  )

     Band symmetry, C_3v (3m)   double point group:

     e(  1 -  2) =    -14.94181  eV     2   --> G_5   L_4      
     e(  1 -  2) =    -14.94181  eV     2   --> G_6   L_5      
     e(  3 -  4) =    -14.93465  eV     2   --> G_4   L_6      
     e(  5 -  6) =    -14.89156  eV     2   --> G_5   L_4      
     e(  5 -  6) =    -14.89156  eV     2   --> G_6   L_5      
     e(  7 -  8) =    -14.88990  eV     2   --> G_4   L_6      
     e(  9 - 10) =    -12.01341  eV     2   --> G_4   L_6      
     e( 11 - 12) =    -11.99839  eV     2   --> G_5   L_4      
     e( 11 - 12) =    -11.99839  eV     2   --> G_6   L_5      
     e( 13 - 14) =    -11.99446  eV     2   --> G_4   L_6      
     e( 15 - 16) =    -11.84646  eV     2   --> G_4   L_6      
     e( 17 - 18) =    -11.84615  eV     2   --> G_5   L_4      
     e( 17 - 18) =    -11.84615  eV     2   --> G_6   L_5      
     e( 19 - 20) =    -11.84060  eV     2   --> G_4   L_6      
     e( 21 - 22) =     -3.00598  eV     2   --> G_4   L_6      
     e( 23 - 24) =      0.80778  eV     2   --> G_4   L_6      
     e( 25 - 26) =      6.80284  eV     2   --> G_4   L_6      
     e( 27 - 28) =      8.60770  eV     2   --> G_4   L_6      
     e( 29 - 30) =      8.99599  eV     2   --> G_5   L_4      
     e( 29 - 30) =      8.99599  eV     2   --> G_6   L_5      
     e( 31 - 32) =      9.59927  eV     2   --> G_4   L_6      
     e( 33 - 34) =     11.40565  eV     2   --> G_4   L_6      
     e( 35 - 36) =     11.72496  eV     2   --> G_5   L_4      
     e( 35 - 36) =     11.72496  eV     2   --> G_6   L_5      
     e( 37 - 38) =     14.47566  eV     2   --> G_4   L_6      

 **************************************************************************

 **************************************************************************

                    xk=(   0.00000,   0.00000,   0.29045  )

     Band symmetry, C_3v (3m)   double point group:

     e(  1 -  2) =    -14.94141  eV     2   --> G_5   L_4      
     e(  1 -  2) =    -14.94141  eV     2   --> G_6   L_5      
     e(  3 -  4) =    -14.93409  eV     2   --> G_4   L_6      
     e(  5 -  6) =    -14.89178  eV     2   --> G_5   L_4      
     e(  5 -  6) =    -14.89178  eV     2   --> G_6   L_5      
     e(  7 -  8) =    -14.89020  eV     2   --> G_4   L_6      
     e(  9 - 10) =    -12.01252  eV     2   --> G_4   L_6      
     e( 11 - 12) =    -11.99713  eV     2   --> G_5   L_4      
     e( 11 - 12) =    -11.99713  eV     2   --> G_6   L_5      
     e( 13 - 14) =    -11.99335  eV     2   --> G_4   L_6      
     e( 15 - 18) =    -11.84759  eV     4   --> G_4   L_6      
     e( 15 - 18) =    -11.84759  eV     4   --> G_5   L_4      
     e( 15 - 18) =    -11.84759  eV     4   --> G_6   L_5      
     e( 19 - 20) =    -11.84177  eV     2   --> G_4   L_6      
     e( 21 - 22) =     -2.97827  eV     2   --> G_4   L_6      
     e( 23 - 24) =      0.75115  eV     2   --> G_4   L_6      
     e( 25 - 26) =      6.82502  eV     2   --> G_4   L_6      
     e( 27 - 28) =      8.59966  eV     2   --> G_4   L_6      
     e( 29 - 30) =      9.00809  eV     2   --> G_5   L_4      
     e( 29 - 30) =      9.00809  eV     2   --> G_6   L_5      
     e( 31 - 32) =      9.57517  eV     2   --> G_4   L_6      
     e( 33 - 34) =     11.34494  eV     2   --> G_4   L_6      
     e( 35 - 36) =     11.66546  eV     2   --> G_5   L_4      
     e( 35 - 36) =     11.66546  eV     2   --> G_6   L_5      
     e( 37 - 38) =     14.51106  eV     2   --> G_4   L_6      

 **************************************************************************

 **************************************************************************

                    xk=(   0.00000,   0.00000,   0.30047  )

     Band symmetry, C_3v (3m)   double point group:

     e(  1 -  2) =    -14.94101  eV     2   --> G_5   L_4      
     e(  1 -  2) =    -14.94101  eV     2   --> G_6   L_5      
     e(  3 -  4) =    -14.93352  eV     2   --> G_4   L_6      
     e(  5 -  6) =    -14.89201  eV     2   --> G_5   L_4      
     e(  5 -  6) =    -14.89201  eV     2   --> G_6   L_5      
     e(  7 -  8) =    -14.89050  eV     2   --> G_4   L_6      
     e(  9 - 10) =    -12.01160  eV     2   --> G_4   L_6      
     e( 11 - 12) =    -11.99584  eV     2   --> G_5   L_4      
     e( 11 - 12) =    -11.99584  eV     2   --> G_6   L_5      
     e( 13 - 14) =    -11.99221  eV     2   --> G_4   L_6      
     e( 15 - 16) =    -11.84907  eV     2   --> G_5   L_4      
     e( 15 - 16) =    -11.84907  eV     2   --> G_6   L_5      
     e( 17 - 18) =    -11.84875  eV     2   --> G_4   L_6      
     e( 19 - 20) =    -11.84294  eV     2   --> G_4   L_6      
     e( 21 - 22) =     -2.94977  eV     2   --> G_4   L_6      
     e( 23 - 24) =      0.69397  eV     2   --> G_4   L_6      
     e( 25 - 26) =      6.84757  eV     2   --> G_4   L_6      
     e( 27 - 28) =      8.59012  eV     2   --> G_4   L_6      
     e( 29 - 30) =      9.02070  eV     2   --> G_5   L_4      
     e( 29 - 30) =      9.02070  eV     2   --> G_6   L_5      
     e( 31 - 32) =      9.55258  eV     2   --> G_4   L_6      
     e( 33 - 34) =     11.28479  eV     2   --> G_4   L_6      
     e( 35 - 36) =     11.60625  eV     2   --> G_5   L_4      
     e( 35 - 36) =     11.60625  eV     2   --> G_6   L_5      
     e( 37 - 38) =     14.54972  eV     2   --> G_4   L_6      

 **************************************************************************

 **************************************************************************

                    xk=(   0.00000,   0.00000,   0.31048  )

     Band symmetry, C_3v (3m)   double point group:

     e(  1 -  2) =    -14.94061  eV     2   --> G_5   L_4      
     e(  1 -  2) =    -14.94061  eV     2   --> G_6   L_5      
     e(  3 -  4) =    -14.93294  eV     2   --> G_4   L_6      
     e(  5 -  6) =    -14.89224  eV     2   --> G_5   L_4      
     e(  5 -  6) =    -14.89224  eV     2   --> G_6   L_5      
     e(  7 -  8) =    -14.89081  eV     2   --> G_4   L_6      
     e(  9 - 10) =    -12.01068  eV     2   --> G_4   L_6      
     e( 11 - 12) =    -11.99453  eV     2   --> G_5   L_4      
     e( 11 - 12) =    -11.99453  eV     2   --> G_6   L_5      
     e( 13 - 14) =    -11.99106  eV     2   --> G_4   L_6      
     e( 15 - 16) =    -11.85057  eV     2   --> G_5   L_4      
     e( 15 - 16) =    -11.85057  eV     2   --> G_6   L_5      
     e( 17 - 18) =    -11.84993  eV     2   --> G_4   L_6      
     e( 19 - 20) =    -11.84413  eV     2   --> G_4   L_6      
     e( 21 - 22) =     -2.92052  eV     2   --> G_4   L_6      
     e( 23 - 24) =      0.63633  eV     2   --> G_4   L_6      
     e( 25 - 26) =      6.87048  eV     2   --> G_4   L_6      
     e( 27 - 28) =      8.57899  eV     2   --> G_4   L_6      
     e( 29 - 30) =      9.03384  eV     2   --> G_5   L_4      
     e( 29 - 30) =      9.03384  eV     2   --> G_6   L_5      
     e( 31 - 32) =      9.53165  eV     2   --> G_4   L_6      
     e( 33 - 34) =     11.22527  eV     2   --> G_4   L_6      
     e( 35 - 36) =     11.54741  eV     2   --> G_5   L_4      
     e( 35 - 36) =     11.54741  eV     2   --> G_6   L_5      
     e( 37 - 38) =     14.59157  eV     2   --> G_4   L_6      

 **************************************************************************

 **************************************************************************

                    xk=(   0.00000,   0.00000,   0.32050  )

     Band symmetry, C_3v (3m)   double point group:

     e(  1 -  2) =    -14.94020  eV     2   --> G_5   L_4      
     e(  1 -  2) =    -14.94020  eV     2   --> G_6   L_5      
     e(  3 -  4) =    -14.93236  eV     2   --> G_4   L_6      
     e(  5 -  6) =    -14.89248  eV     2   --> G_5   L_4      
     e(  5 -  6) =    -14.89248  eV     2   --> G_6   L_5      
     e(  7 -  8) =    -14.89113  eV     2   --> G_4   L_6      
     e(  9 - 10) =    -12.00973  eV     2   --> G_4   L_6      
     e( 11 - 12) =    -11.99319  eV     2   --> G_5   L_4      
     e( 11 - 12) =    -11.99319  eV     2   --> G_6   L_5      
     e( 13 - 14) =    -11.98990  eV     2   --> G_4   L_6      
     e( 15 - 16) =    -11.85210  eV     2   --> G_5   L_4      
     e( 15 - 16) =    -11.85210  eV     2   --> G_6   L_5      
     e( 17 - 18) =    -11.85113  eV     2   --> G_4   L_6      
     e( 19 - 20) =    -11.84532  eV     2   --> G_4   L_6      
     e( 21 - 22) =     -2.89054  eV     2   --> G_4   L_6      
     e( 23 - 24) =      0.57834  eV     2   --> G_4   L_6      
     e( 25 - 26) =      6.89375  eV     2   --> G_4   L_6      
     e( 27 - 28) =      8.56621  eV     2   --> G_4   L_6      
     e( 29 - 30) =      9.04749  eV     2   --> G_5   L_4      
     e( 29 - 30) =      9.04749  eV     2   --> G_6   L_5      
     e( 31 - 32) =      9.51249  eV     2   --> G_4   L_6      
     e( 33 - 34) =     11.16645  eV     2   --> G_4   L_6      
     e( 35 - 36) =     11.48903  eV     2   --> G_5   L_4      
     e( 35 - 36) =     11.48903  eV     2   --> G_6   L_5      
     e( 37 - 38) =     14.63653  eV     2   --> G_4   L_6      

 **************************************************************************

 **************************************************************************

                    xk=(   0.00000,   0.00000,   0.33051  )

     Band symmetry, C_3v (3m)   double point group:

     e(  1 -  2) =    -14.93978  eV     2   --> G_5   L_4      
     e(  1 -  2) =    -14.93978  eV     2   --> G_6   L_5      
     e(  3 -  4) =    -14.93176  eV     2   --> G_4   L_6      
     e(  5 -  6) =    -14.89272  eV     2   --> G_5   L_4      
     e(  5 -  6) =    -14.89272  eV     2   --> G_6   L_5      
     e(  7 -  8) =    -14.89146  eV     2   --> G_4   L_6      
     e(  9 - 10) =    -12.00878  eV     2   --> G_4   L_6      
     e( 11 - 12) =    -11.99183  eV     2   --> G_5   L_4      
     e( 11 - 12) =    -11.99183  eV     2   --> G_6   L_5      
     e( 13 - 14) =    -11.98873  eV     2   --> G_4   L_6      
     e( 15 - 16) =    -11.85365  eV     2   --> G_5   L_4      
     e( 15 - 16) =    -11.85365  eV     2   --> G_6   L_5      
     e( 17 - 18) =    -11.85234  eV     2   --> G_4   L_6      
     e( 19 - 20) =    -11.84652  eV     2   --> G_4   L_6      
     e( 21 - 22) =     -2.85988  eV     2   --> G_4   L_6      
     e( 23 - 24) =      0.52009  eV     2   --> G_4   L_6      
     e( 25 - 26) =      6.91735  eV     2   --> G_4   L_6      
     e( 27 - 28) =      8.55175  eV     2   --> G_4   L_6      
     e( 29 - 30) =      9.06166  eV     2   --> G_5   L_4      
     e( 29 - 30) =      9.06166  eV     2   --> G_6   L_5      
     e( 31 - 32) =      9.49522  eV     2   --> G_4   L_6      
     e( 33 - 34) =     11.10839  eV     2   --> G_4   L_6      
     e( 35 - 36) =     11.43118  eV     2   --> G_5   L_4      
     e( 35 - 36) =     11.43118  eV     2   --> G_6   L_5      
     e( 37 - 38) =     14.68453  eV     2   --> G_4   L_6      

 **************************************************************************

 **************************************************************************

                    xk=(   0.00000,   0.00000,   0.34053  )

     Band symmetry, C_3v (3m)   double point group:

     e(  1 -  2) =    -14.93937  eV     2   --> G_5   L_4      
     e(  1 -  2) =    -14.93937  eV     2   --> G_6   L_5      
     e(  3 -  4) =    -14.93116  eV     2   --> G_4   L_6      
     e(  5 -  6) =    -14.89296  eV     2   --> G_5   L_4      
     e(  5 -  6) =    -14.89296  eV     2   --> G_6   L_5      
     e(  7 -  8) =    -14.89180  eV     2   --> G_4   L_6      
     e(  9 - 10) =    -12.00782  eV     2   --> G_4   L_6      
     e( 11 - 12) =    -11.99045  eV     2   --> G_5   L_4      
     e( 11 - 12) =    -11.99045  eV     2   --> G_6   L_5      
     e( 13 - 14) =    -11.98755  eV     2   --> G_4   L_6      
     e( 15 - 16) =    -11.85522  eV     2   --> G_5   L_4      
     e( 15 - 16) =    -11.85522  eV     2   --> G_6   L_5      
     e( 17 - 18) =    -11.85357  eV     2   --> G_4   L_6      
     e( 19 - 20) =    -11.84772  eV     2   --> G_4   L_6      
     e( 21 - 22) =     -2.82856  eV     2   --> G_4   L_6      
     e( 23 - 24) =      0.46169  eV     2   --> G_4   L_6      
     e( 25 - 26) =      6.94129  eV     2   --> G_4   L_6      
     e( 27 - 28) =      8.53558  eV     2   --> G_4   L_6      
     e( 29 - 30) =      9.07633  eV     2   --> G_5   L_4      
     e( 29 - 30) =      9.07633  eV     2   --> G_6   L_5      
     e( 31 - 32) =      9.47992  eV     2   --> G_4   L_6      
     e( 33 - 34) =     11.05116  eV     2   --> G_4   L_6      
     e( 35 - 36) =     11.37394  eV     2   --> G_5   L_4      
     e( 35 - 36) =     11.37394  eV     2   --> G_6   L_5      
     e( 37 - 38) =     14.73547  eV     2   --> G_4   L_6      

 **************************************************************************

 **************************************************************************

                    xk=(   0.00000,   0.00000,   0.35054  )

     Band symmetry, C_3v (3m)   double point group:

     e(  1 -  2) =    -14.93896  eV     2   --> G_5   L_4      
     e(  1 -  2) =    -14.93896  eV     2   --> G_6   L_5      
     e(  3 -  4) =    -14.93056  eV     2   --> G_4   L_6      
     e(  5 -  6) =    -14.89320  eV     2   --> G_5   L_4      
     e(  5 -  6) =    -14.89320  eV     2   --> G_6   L_5      
     e(  7 -  8) =    -14.89214  eV     2   --> G_4   L_6      
     e(  9 - 10) =    -12.00685  eV     2   --> G_4   L_6      
     e( 11 - 12) =    -11.98905  eV     2   --> G_5   L_4      
     e( 11 - 12) =    -11.98905  eV     2   --> G_6   L_5      
     e( 13 - 14) =    -11.98637  eV     2   --> G_4   L_6      
     e( 15 - 16) =    -11.85680  eV     2   --> G_5   L_4      
     e( 15 - 16) =    -11.85680  eV     2   --> G_6   L_5      
     e( 17 - 18) =    -11.85480  eV     2   --> G_4   L_6      
     e( 19 - 20) =    -11.84892  eV     2   --> G_4   L_6      
     e( 21 - 22) =     -2.79664  eV     2   --> G_4   L_6      
     e( 23 - 24) =      0.40323  eV     2   --> G_4   L_6      
     e( 25 - 26) =      6.96555  eV     2   --> G_4   L_6      
     e( 27 - 28) =      8.51772  eV     2   --> G_4   L_6      
     e( 29 - 30) =      9.09151  eV     2   --> G_5   L_4      
     e( 29 - 30) =      9.09151  eV     2   --> G_6   L_5      
     e( 31 - 32) =      9.46664  eV     2   --> G_4   L_6      
     e( 33 - 34) =     10.99481  eV     2   --> G_4   L_6      
     e( 35 - 36) =     11.31737  eV     2   --> G_5   L_4      
     e( 35 - 36) =     11.31737  eV     2   --> G_6   L_5      
     e( 37 - 38) =     14.78925  eV     2   --> G_4   L_6      

 **************************************************************************

 **************************************************************************

                    xk=(   0.00000,   0.00000,   0.36056  )

     Band symmetry, C_3v (3m)   double point group:

     e(  1 -  2) =    -14.93854  eV     2   --> G_5   L_4      
     e(  1 -  2) =    -14.93854  eV     2   --> G_6   L_5      
     e(  3 -  4) =    -14.92995  eV     2   --> G_4   L_6      
     e(  5 -  6) =    -14.89345  eV     2   --> G_5   L_4      
     e(  5 -  6) =    -14.89345  eV     2   --> G_6   L_5      
     e(  7 -  8) =    -14.89249  eV     2   --> G_4   L_6      
     e(  9 - 10) =    -12.00587  eV     2   --> G_4   L_6      
     e( 11 - 12) =    -11.98764  eV     2   --> G_5   L_4      
     e( 11 - 12) =    -11.98764  eV     2   --> G_6   L_5      
     e( 13 - 14) =    -11.98519  eV     2   --> G_4   L_6      
     e( 15 - 16) =    -11.85839  eV     2   --> G_5   L_4      
     e( 15 - 16) =    -11.85839  eV     2   --> G_6   L_5      
     e( 17 - 18) =    -11.85604  eV     2   --> G_4   L_6      
     e( 19 - 20) =    -11.85012  eV     2   --> G_4   L_6      
     e( 21 - 22) =     -2.76415  eV     2   --> G_4   L_6      
     e( 23 - 24) =      0.34482  eV     2   --> G_4   L_6      
     e( 25 - 26) =      6.99012  eV     2   --> G_4   L_6      
     e( 27 - 28) =      8.49820  eV     2   --> G_4   L_6      
     e( 29 - 30) =      9.10716  eV     2   --> G_5   L_4      
     e( 29 - 30) =      9.10716  eV     2   --> G_6   L_5      
     e( 31 - 32) =      9.45541  eV     2   --> G_4   L_6      
     e( 33 - 34) =     10.93940  eV     2   --> G_4   L_6      
     e( 35 - 36) =     11.26155  eV     2   --> G_5   L_4      
     e( 35 - 36) =     11.26155  eV     2   --> G_6   L_5      
     e( 37 - 38) =     14.84579  eV     2   --> G_4   L_6      

 **************************************************************************

 **************************************************************************

                    xk=(   0.00000,   0.00000,   0.37058  )

     Band symmetry, C_3v (3m)   double point group:

     e(  1 -  2) =    -14.93813  eV     2   --> G_5   L_4      
     e(  1 -  2) =    -14.93813  eV     2   --> G_6   L_5      
     e(  3 -  4) =    -14.92934  eV     2   --> G_4   L_6      
     e(  5 -  6) =    -14.89370  eV     2   --> G_5   L_4      
     e(  5 -  6) =    -14.89370  eV     2   --> G_6   L_5      
     e(  7 -  8) =    -14.89285  eV     2   --> G_4   L_6      
     e(  9 - 10) =    -12.00489  eV     2   --> G_4   L_6      
     e( 11 - 12) =    -11.98622  eV     2   --> G_5   L_4      
     e( 11 - 12) =    -11.98622  eV     2   --> G_6   L_5      
     e( 13 - 14) =    -11.98401  eV     2   --> G_4   L_6      
     e( 15 - 16) =    -11.85999  eV     2   --> G_5   L_4      
     e( 15 - 16) =    -11.85999  eV     2   --> G_6   L_5      
     e( 17 - 18) =    -11.85727  eV     2   --> G_4   L_6      
     e( 19 - 20) =    -11.85132  eV     2   --> G_4   L_6      
     e( 21 - 22) =     -2.73115  eV     2   --> G_4   L_6      
     e( 23 - 24) =      0.28656  eV     2   --> G_4   L_6      
     e( 25 - 26) =      7.01500  eV     2   --> G_4   L_6      
     e( 27 - 28) =      8.47708  eV     2   --> G_4   L_6      
     e( 29 - 30) =      9.12329  eV     2   --> G_5   L_4      
     e( 29 - 30) =      9.12329  eV     2   --> G_6   L_5      
     e( 31 - 32) =      9.44621  eV     2   --> G_4   L_6      
     e( 33 - 34) =     10.88498  eV     2   --> G_4   L_6      
     e( 35 - 36) =     11.20654  eV     2   --> G_5   L_4      
     e( 35 - 36) =     11.20654  eV     2   --> G_6   L_5      
     e( 37 - 38) =     14.90497  eV     2   --> G_4   L_6      

 **************************************************************************

 **************************************************************************

                    xk=(   0.00000,   0.00000,   0.38059  )

     Band symmetry, C_3v (3m)   double point group:

     e(  1 -  2) =    -14.93773  eV     2   --> G_5   L_4      
     e(  1 -  2) =    -14.93773  eV     2   --> G_6   L_5      
     e(  3 -  4) =    -14.92873  eV     2   --> G_4   L_6      
     e(  5 -  6) =    -14.89394  eV     2   --> G_5   L_4      
     e(  5 -  6) =    -14.89394  eV     2   --> G_6   L_5      
     e(  7 -  8) =    -14.89321  eV     2   --> G_4   L_6      
     e(  9 - 10) =    -12.00392  eV     2   --> G_4   L_6      
     e( 11 - 12) =    -11.98479  eV     2   --> G_5   L_4      
     e( 11 - 12) =    -11.98479  eV     2   --> G_6   L_5      
     e( 13 - 14) =    -11.98283  eV     2   --> G_4   L_6      
     e( 15 - 16) =    -11.86159  eV     2   --> G_5   L_4      
     e( 15 - 16) =    -11.86159  eV     2   --> G_6   L_5      
     e( 17 - 18) =    -11.85850  eV     2   --> G_4   L_6      
     e( 19 - 20) =    -11.85251  eV     2   --> G_4   L_6      
     e( 21 - 22) =     -2.69770  eV     2   --> G_4   L_6      
     e( 23 - 24) =      0.22857  eV     2   --> G_4   L_6      
     e( 25 - 26) =      7.04017  eV     2   --> G_4   L_6      
     e( 27 - 28) =      8.45445  eV     2   --> G_4   L_6      
     e( 29 - 30) =      9.13987  eV     2   --> G_5   L_4      
     e( 29 - 30) =      9.13987  eV     2   --> G_6   L_5      
     e( 31 - 32) =      9.43903  eV     2   --> G_4   L_6      
     e( 33 - 34) =     10.83161  eV     2   --> G_4   L_6      
     e( 35 - 36) =     11.15242  eV     2   --> G_5   L_4      
     e( 35 - 36) =     11.15242  eV     2   --> G_6   L_5      
     e( 37 - 38) =     14.96668  eV     2   --> G_4   L_6      

 **************************************************************************

 **************************************************************************

                    xk=(   0.00000,   0.00000,   0.39061  )

     Band symmetry, C_3v (3m)   double point group:

     e(  1 -  2) =    -14.93732  eV     2   --> G_5   L_4      
     e(  1 -  2) =    -14.93732  eV     2   --> G_6   L_5      
     e(  3 -  4) =    -14.92812  eV     2   --> G_4   L_6      
     e(  5 -  6) =    -14.89419  eV     2   --> G_5   L_4      
     e(  5 -  6) =    -14.89419  eV     2   --> G_6   L_5      
     e(  7 -  8) =    -14.89358  eV     2   --> G_4   L_6      
     e(  9 - 10) =    -12.00295  eV     2   --> G_4   L_6      
     e( 11 - 12) =    -11.98335  eV     2   --> G_5   L_4      
[...]
     e( 13 - 14) =    -12.00854  eV     2   --> G_3            
     e( 13 - 14) =    -12.00854  eV     2   --> G_4            
     e( 15 - 16) =    -11.83319  eV     2   --> G_3            
     e( 15 - 16) =    -11.83319  eV     2   --> G_4            
     e( 17 - 18) =    -11.82485  eV     2   --> G_3            
     e( 17 - 18) =    -11.82485  eV     2   --> G_4            
     e( 19 - 20) =    -11.82180  eV     2   --> G_3            
     e( 19 - 20) =    -11.82180  eV     2   --> G_4            
     e( 21 - 22) =     -3.37434  eV     2   --> G_3            
     e( 21 - 22) =     -3.37434  eV     2   --> G_4            
     e( 23 - 24) =      1.69310  eV     2   --> G_3            
     e( 23 - 24) =      1.69310  eV     2   --> G_4            
     e( 25 - 26) =      6.45200  eV     2   --> G_3            
     e( 25 - 26) =      6.45200  eV     2   --> G_4            
     e( 27 - 28) =      8.58228  eV     2   --> G_3            
     e( 27 - 28) =      8.58228  eV     2   --> G_4            
     e( 29 - 30) =      8.84913  eV     2   --> G_3            
     e( 29 - 30) =      8.84913  eV     2   --> G_4            
     e( 31 - 32) =     10.14110  eV     2   --> G_3            
     e( 31 - 32) =     10.14110  eV     2   --> G_4            
     e( 33 - 34) =     12.51628  eV     2   --> G_3            
     e( 33 - 34) =     12.51628  eV     2   --> G_4            
     e( 35 - 36) =     12.86249  eV     2   --> G_3            
     e( 35 - 36) =     12.86249  eV     2   --> G_4            
     e( 37 - 38) =     14.64752  eV     2   --> G_3            
     e( 37 - 38) =     14.64752  eV     2   --> G_4            

 **************************************************************************

 **************************************************************************

                    xk=(   0.04337,  -0.02504,   0.03339  )

     Band symmetry, C_s (m)     double point group:

     e(  1 -  2) =    -14.94779  eV     2   --> G_3            
     e(  1 -  2) =    -14.94779  eV     2   --> G_4            
     e(  3 -  4) =    -14.94289  eV     2   --> G_3            
     e(  3 -  4) =    -14.94289  eV     2   --> G_4            
     e(  5 -  6) =    -14.88841  eV     2   --> G_3            
     e(  5 -  6) =    -14.88841  eV     2   --> G_4            
     e(  7 -  8) =    -14.88594  eV     2   --> G_3            
     e(  7 -  8) =    -14.88594  eV     2   --> G_4            
     e(  9 - 10) =    -12.02616  eV     2   --> G_3            
     e(  9 - 10) =    -12.02616  eV     2   --> G_4            
     e( 11 - 12) =    -12.01763  eV     2   --> G_3            
     e( 11 - 12) =    -12.01763  eV     2   --> G_4            
     e( 13 - 14) =    -12.00944  eV     2   --> G_3            
     e( 13 - 14) =    -12.00944  eV     2   --> G_4            
     e( 15 - 16) =    -11.83224  eV     2   --> G_3            
     e( 15 - 16) =    -11.83224  eV     2   --> G_4            
     e( 17 - 18) =    -11.82437  eV     2   --> G_3            
     e( 17 - 18) =    -11.82437  eV     2   --> G_4            
     e( 19 - 20) =    -11.82192  eV     2   --> G_3            
     e( 19 - 20) =    -11.82192  eV     2   --> G_4            
     e( 21 - 22) =     -3.38298  eV     2   --> G_3            
     e( 21 - 22) =     -3.38298  eV     2   --> G_4            
     e( 23 - 24) =      1.71303  eV     2   --> G_3            
     e( 23 - 24) =      1.71303  eV     2   --> G_4            
     e( 25 - 26) =      6.44763  eV     2   --> G_3            
     e( 25 - 26) =      6.44763  eV     2   --> G_4            
     e( 27 - 28) =      8.58872  eV     2   --> G_3            
     e( 27 - 28) =      8.58872  eV     2   --> G_4            
     e( 29 - 30) =      8.84329  eV     2   --> G_3            
     e( 29 - 30) =      8.84329  eV     2   --> G_4            
     e( 31 - 32) =     10.15968  eV     2   --> G_3            
     e( 31 - 32) =     10.15968  eV     2   --> G_4            
     e( 33 - 34) =     12.58016  eV     2   --> G_3            
     e( 33 - 34) =     12.58016  eV     2   --> G_4            
     e( 35 - 36) =     12.86393  eV     2   --> G_3            
     e( 35 - 36) =     12.86393  eV     2   --> G_4            
     e( 37 - 38) =     14.67788  eV     2   --> G_3            
     e( 37 - 38) =     14.67788  eV     2   --> G_4            

 **************************************************************************

 **************************************************************************

                    xk=(   0.03469,  -0.02003,   0.02671  )

     Band symmetry, C_s (m)     double point group:

     e(  1 -  2) =    -14.94790  eV     2   --> G_3            
     e(  1 -  2) =    -14.94790  eV     2   --> G_4            
     e(  3 -  4) =    -14.94304  eV     2   --> G_3            
     e(  3 -  4) =    -14.94304  eV     2   --> G_4            
     e(  5 -  6) =    -14.88833  eV     2   --> G_3            
     e(  5 -  6) =    -14.88833  eV     2   --> G_4            
     e(  7 -  8) =    -14.88591  eV     2   --> G_3            
     e(  7 -  8) =    -14.88591  eV     2   --> G_4            
     e(  9 - 10) =    -12.02639  eV     2   --> G_3            
     e(  9 - 10) =    -12.02639  eV     2   --> G_4            
     e( 11 - 12) =    -12.01754  eV     2   --> G_3            
     e( 11 - 12) =    -12.01754  eV     2   --> G_4            
     e( 13 - 14) =    -12.01024  eV     2   --> G_3            
     e( 13 - 14) =    -12.01024  eV     2   --> G_4            
     e( 15 - 16) =    -11.83142  eV     2   --> G_3            
     e( 15 - 16) =    -11.83142  eV     2   --> G_4            
     e( 17 - 18) =    -11.82410  eV     2   --> G_3            
     e( 17 - 18) =    -11.82410  eV     2   --> G_4            
     e( 19 - 20) =    -11.82191  eV     2   --> G_3            
     e( 19 - 20) =    -11.82191  eV     2   --> G_4            
     e( 21 - 22) =     -3.39006  eV     2   --> G_3            
     e( 21 - 22) =     -3.39006  eV     2   --> G_4            
     e( 23 - 24) =      1.72959  eV     2   --> G_3            
     e( 23 - 24) =      1.72959  eV     2   --> G_4            
     e( 25 - 26) =      6.44351  eV     2   --> G_3            
     e( 25 - 26) =      6.44351  eV     2   --> G_4            
     e( 27 - 28) =      8.59189  eV     2   --> G_3            
     e( 27 - 28) =      8.59189  eV     2   --> G_4            
     e( 29 - 30) =      8.84101  eV     2   --> G_3            
     e( 29 - 30) =      8.84101  eV     2   --> G_4            
     e( 31 - 32) =     10.17423  eV     2   --> G_3            
     e( 31 - 32) =     10.17423  eV     2   --> G_4            
     e( 33 - 34) =     12.63038  eV     2   --> G_3            
     e( 33 - 34) =     12.63038  eV     2   --> G_4            
     e( 35 - 36) =     12.87194  eV     2   --> G_3            
     e( 35 - 36) =     12.87194  eV     2   --> G_4            
     e( 37 - 38) =     14.69871  eV     2   --> G_3            
     e( 37 - 38) =     14.69871  eV     2   --> G_4            

 **************************************************************************

 **************************************************************************

                    xk=(   0.02602,  -0.01502,   0.02003  )

     Band symmetry, C_s (m)     double point group:

     e(  1 -  2) =    -14.94799  eV     2   --> G_3            
     e(  1 -  2) =    -14.94799  eV     2   --> G_4            
     e(  3 -  4) =    -14.94315  eV     2   --> G_3            
     e(  3 -  4) =    -14.94315  eV     2   --> G_4            
     e(  5 -  6) =    -14.88829  eV     2   --> G_3            
     e(  5 -  6) =    -14.88829  eV     2   --> G_4            
     e(  7 -  8) =    -14.88587  eV     2   --> G_3            
     e(  7 -  8) =    -14.88587  eV     2   --> G_4            
     e(  9 - 10) =    -12.02659  eV     2   --> G_3            
     e(  9 - 10) =    -12.02659  eV     2   --> G_4            
     e( 11 - 12) =    -12.01740  eV     2   --> G_3            
     e( 11 - 12) =    -12.01740  eV     2   --> G_4            
     e( 13 - 14) =    -12.01091  eV     2   --> G_3            
     e( 13 - 14) =    -12.01091  eV     2   --> G_4            
     e( 15 - 16) =    -11.83074  eV     2   --> G_3            
     e( 15 - 16) =    -11.83074  eV     2   --> G_4            
     e( 17 - 18) =    -11.82405  eV     2   --> G_3            
     e( 17 - 18) =    -11.82405  eV     2   --> G_4            
     e( 19 - 20) =    -11.82179  eV     2   --> G_3            
     e( 19 - 20) =    -11.82179  eV     2   --> G_4            
     e( 21 - 22) =     -3.39556  eV     2   --> G_3            
     e( 21 - 22) =     -3.39556  eV     2   --> G_4            
     e( 23 - 24) =      1.74264  eV     2   --> G_3            
     e( 23 - 24) =      1.74264  eV     2   --> G_4            
     e( 25 - 26) =      6.43995  eV     2   --> G_3            
     e( 25 - 26) =      6.43995  eV     2   --> G_4            
     e( 27 - 28) =      8.59295  eV     2   --> G_3            
     e( 27 - 28) =      8.59295  eV     2   --> G_4            
     e( 29 - 30) =      8.84091  eV     2   --> G_3            
     e( 29 - 30) =      8.84091  eV     2   --> G_4            
     e( 31 - 32) =     10.18513  eV     2   --> G_3            
     e( 31 - 32) =     10.18513  eV     2   --> G_4            
     e( 33 - 34) =     12.66498  eV     2   --> G_3            
     e( 33 - 34) =     12.66498  eV     2   --> G_4            
     e( 35 - 36) =     12.88588  eV     2   --> G_3            
     e( 35 - 36) =     12.88588  eV     2   --> G_4            
     e( 37 - 38) =     14.71491  eV     2   --> G_3            
     e( 37 - 38) =     14.71491  eV     2   --> G_4            

 **************************************************************************

 **************************************************************************

                    xk=(   0.01735,  -0.01002,   0.01335  )

     Band symmetry, C_s (m)     double point group:

     e(  1 -  2) =    -14.94806  eV     2   --> G_3            
     e(  1 -  2) =    -14.94806  eV     2   --> G_4            
     e(  3 -  4) =    -14.94323  eV     2   --> G_3            
     e(  3 -  4) =    -14.94323  eV     2   --> G_4            
     e(  5 -  6) =    -14.88826  eV     2   --> G_3            
     e(  5 -  6) =    -14.88826  eV     2   --> G_4            
     e(  7 -  8) =    -14.88585  eV     2   --> G_3            
     e(  7 -  8) =    -14.88585  eV     2   --> G_4            
     e(  9 - 10) =    -12.02674  eV     2   --> G_3            
     e(  9 - 10) =    -12.02674  eV     2   --> G_4            
     e( 11 - 12) =    -12.01725  eV     2   --> G_3            
     e( 11 - 12) =    -12.01725  eV     2   --> G_4            
     e( 13 - 14) =    -12.01143  eV     2   --> G_3            
     e( 13 - 14) =    -12.01143  eV     2   --> G_4            
     e( 15 - 16) =    -11.83023  eV     2   --> G_3            
     e( 15 - 16) =    -11.83023  eV     2   --> G_4            
     e( 17 - 18) =    -11.82410  eV     2   --> G_3            
     e( 17 - 18) =    -11.82410  eV     2   --> G_4            
     e( 19 - 20) =    -11.82164  eV     2   --> G_3            
     e( 19 - 20) =    -11.82164  eV     2   --> G_4            
     e( 21 - 22) =     -3.39950  eV     2   --> G_3            
     e( 21 - 22) =     -3.39950  eV     2   --> G_4            
     e( 23 - 24) =      1.75205  eV     2   --> G_3            
     e( 23 - 24) =      1.75205  eV     2   --> G_4            
     e( 25 - 26) =      6.43721  eV     2   --> G_3            
     e( 25 - 26) =      6.43721  eV     2   --> G_4            
     e( 27 - 28) =      8.59295  eV     2   --> G_3            
     e( 27 - 28) =      8.59295  eV     2   --> G_4            
     e( 29 - 30) =      8.84176  eV     2   --> G_3            
     e( 29 - 30) =      8.84176  eV     2   --> G_4            
     e( 31 - 32) =     10.19268  eV     2   --> G_3            
     e( 31 - 32) =     10.19268  eV     2   --> G_4            
     e( 33 - 34) =     12.68554  eV     2   --> G_3            
     e( 33 - 34) =     12.68554  eV     2   --> G_4            
     e( 35 - 36) =     12.90187  eV     2   --> G_3            
     e( 35 - 36) =     12.90187  eV     2   --> G_4            
     e( 37 - 38) =     14.72844  eV     2   --> G_3            
     e( 37 - 38) =     14.72844  eV     2   --> G_4            

 **************************************************************************

 **************************************************************************

                    xk=(   0.00867,  -0.00501,   0.00668  )

     Band symmetry, C_s (m)     double point group:

     e(  1 -  2) =    -14.94810  eV     2   --> G_3            
     e(  1 -  2) =    -14.94810  eV     2   --> G_4            
     e(  3 -  4) =    -14.94327  eV     2   --> G_3            
     e(  3 -  4) =    -14.94327  eV     2   --> G_4            
     e(  5 -  6) =    -14.88824  eV     2   --> G_3            
     e(  5 -  6) =    -14.88824  eV     2   --> G_4            
     e(  7 -  8) =    -14.88583  eV     2   --> G_3            
     e(  7 -  8) =    -14.88583  eV     2   --> G_4            
     e(  9 - 10) =    -12.02684  eV     2   --> G_3            
     e(  9 - 10) =    -12.02684  eV     2   --> G_4            
     e( 11 - 12) =    -12.01714  eV     2   --> G_3            
     e( 11 - 12) =    -12.01714  eV     2   --> G_4            
     e( 13 - 14) =    -12.01176  eV     2   --> G_3            
     e( 13 - 14) =    -12.01176  eV     2   --> G_4            
     e( 15 - 16) =    -11.82990  eV     2   --> G_3            
     e( 15 - 16) =    -11.82990  eV     2   --> G_4            
     e( 17 - 18) =    -11.82417  eV     2   --> G_3            
     e( 17 - 18) =    -11.82417  eV     2   --> G_4            
     e( 19 - 20) =    -11.82152  eV     2   --> G_3            
     e( 19 - 20) =    -11.82152  eV     2   --> G_4            
     e( 21 - 22) =     -3.40187  eV     2   --> G_3            
     e( 21 - 22) =     -3.40187  eV     2   --> G_4            
     e( 23 - 24) =      1.75773  eV     2   --> G_3            
     e( 23 - 24) =      1.75773  eV     2   --> G_4            
     e( 25 - 26) =      6.43549  eV     2   --> G_3            
     e( 25 - 26) =      6.43549  eV     2   --> G_4            
     e( 27 - 28) =      8.59265  eV     2   --> G_3            
     e( 27 - 28) =      8.59265  eV     2   --> G_4            
     e( 29 - 30) =      8.84264  eV     2   --> G_3            
     e( 29 - 30) =      8.84264  eV     2   --> G_4            
     e( 31 - 32) =     10.19711  eV     2   --> G_3            
     e( 31 - 32) =     10.19711  eV     2   --> G_4            
     e( 33 - 34) =     12.69578  eV     2   --> G_3            
     e( 33 - 34) =     12.69578  eV     2   --> G_4            
     e( 35 - 36) =     12.91434  eV     2   --> G_3            
     e( 35 - 36) =     12.91434  eV     2   --> G_4            
     e( 37 - 38) =     14.73812  eV     2   --> G_3            
     e( 37 - 38) =     14.73812  eV     2   --> G_4            

 **************************************************************************

 **************************************************************************

                    xk=(   0.00000,   0.00000,   0.00000  )

     double point group D_3d (-3m) 
     there are 12 classes and  6 irreducible representations
     the character table:

       E     -E    2C3   -2C3  3C2'  -3C2' i     -i    2S6   -2S6  3s_v  -3s_v
                                                                              
G_4+   2.00 -2.00  1.00 -1.00  0.00  0.00  2.00 -2.00  1.00 -1.00  0.00  0.00
G_5+   1.00 -1.00 -1.00  1.00  0.00  0.00  1.00 -1.00 -1.00  1.00  0.00  0.00
G_6+   1.00 -1.00 -1.00  1.00  0.00  0.00  1.00 -1.00 -1.00  1.00  0.00  0.00
G_4-   2.00 -2.00  1.00 -1.00  0.00  0.00 -2.00  2.00 -1.00  1.00  0.00  0.00
G_5-   1.00 -1.00 -1.00  1.00  0.00  0.00 -1.00  1.00  1.00 -1.00  0.00  0.00
G_6-   1.00 -1.00 -1.00  1.00  0.00  0.00 -1.00  1.00  1.00 -1.00  0.00  0.00

     imaginary part

       E     -E    2C3   -2C3  3C2'  -3C2' i     -i    2S6   -2S6  3s_v  -3s_v
                                                                              
G_4+   0.00  0.00  0.00  0.00  0.00  0.00  0.00  0.00  0.00  0.00  0.00  0.00
G_5+   0.00  0.00  0.00  0.00  1.00 -1.00  0.00  0.00  0.00  0.00  1.00 -1.00
G_6+   0.00  0.00  0.00  0.00 -1.00  1.00  0.00  0.00  0.00  0.00 -1.00  1.00
G_4-   0.00  0.00  0.00  0.00  0.00  0.00  0.00  0.00  0.00  0.00  0.00  0.00
G_5-   0.00  0.00  0.00  0.00  1.00 -1.00  0.00  0.00  0.00  0.00 -1.00  1.00
G_6-   0.00  0.00  0.00  0.00 -1.00  1.00  0.00  0.00  0.00  0.00  1.00 -1.00

     the symmetry operations in each class and the name of the first element:

     E             1
                                                                 
     -E           -1
                                                                 
     2C3           3    4
                                                                 
     -2C3         -3   -4
                                                                 
     3C2'          2   -5   -6
                                                                 
     3C2'          5    6   -2
                                                                 
     i             7
                                                                 
     -i           -7
                                                                 
     2S6           9   10
                                                                 
     -2S6         -9  -10
                                                                 
     3s_v          8  -11  -12
                                                                 
     3s_v         11   12   -8
                                                                 

     Band symmetry, D_3d (-3m)  double point group:

     e(  1 -  2) =    -14.94812  eV     2   --> G_5+  L_4+     
     e(  1 -  2) =    -14.94812  eV     2   --> G_6+  L_5+     
     e(  3 -  4) =    -14.94329  eV     2   --> G_4+  L_6+     
     e(  5 -  6) =    -14.88823  eV     2   --> G_5-  L_4-     
     e(  5 -  6) =    -14.88823  eV     2   --> G_6-  L_5-     
     e(  7 -  8) =    -14.88582  eV     2   --> G_4-  L_6-     
     e(  9 - 10) =    -12.02687  eV     2   --> G_4+  L_6+     
     e( 11 - 12) =    -12.01710  eV     2   --> G_5+  L_4+     
     e( 11 - 12) =    -12.01710  eV     2   --> G_6+  L_5+     
     e( 13 - 14) =    -12.01188  eV     2   --> G_4-  L_6-     
     e( 15 - 16) =    -11.82979  eV     2   --> G_4+  L_6+     
     e( 17 - 18) =    -11.82420  eV     2   --> G_5-  L_4-     
     e( 17 - 18) =    -11.82420  eV     2   --> G_6-  L_5-     
     e( 19 - 20) =    -11.82148  eV     2   --> G_4-  L_6-     
     e( 21 - 22) =     -3.40265  eV     2   --> G_4+  L_6+     
     e( 23 - 24) =      1.75963  eV     2   --> G_4-  L_6-     
     e( 25 - 26) =      6.43490  eV     2   --> G_4+  L_6+     
     e( 27 - 28) =      8.59250  eV     2   --> G_4+  L_6+     
     e( 29 - 30) =      8.84300  eV     2   --> G_5+  L_4+     
     e( 29 - 30) =      8.84300  eV     2   --> G_6+  L_5+     
     e( 31 - 32) =     10.19857  eV     2   --> G_4-  L_6-     
     e( 33 - 34) =     12.69883  eV     2   --> G_4-  L_6-     
     e( 35 - 36) =     12.91899  eV     2   --> G_5-  L_4-     
     e( 35 - 36) =     12.91899  eV     2   --> G_6-  L_5-     
     e( 37 - 38) =     14.74170  eV     2   --> G_4-  L_6-     

 **************************************************************************
 
     BANDS        :   4m23.50s CPU   4m27.24s WALL

 
   This run was terminated on:  21:10:59  29Nov2020            

=------------------------------------------------------------------------------=
   JOB DONE.
=------------------------------------------------------------------------------=
