mpijob CMD    : mpirun -f /tmp/mpiexec.params.k050801.20758
mpijob PARAMS : -d
        /home/k0508/k050801/research/dft/qeirreps/v1/qeirreps/reference/Bi_soc
        r1i0n15 24 omplace -nt 1
        "/home/k0508/k050801/research/dft/qe-6.2/bin/bands.x"

SGI MPT Placement option
--------------------------
omplace -nt 1

Node   MPI
------------
r1i0n15 24


     Program BANDS v.6.2 (svn rev. 13949:13950) starts on 10Apr2020 at 17:30:50 

     This program is part of the open-source Quantum ESPRESSO suite
     for quantum simulation of materials; please cite
         "P. Giannozzi et al., J. Phys.:Condens. Matter 21 395502 (2009);
         "P. Giannozzi et al., J. Phys.:Condens. Matter 29 465901 (2017);
          URL http://www.quantum-espresso.org", 
     in publications or presentations arising from this work. More details at
     http://www.quantum-espresso.org/quote

     Parallel version (MPI), running on    24 processors

     MPI processes distributed on     1 nodes
     R & G space division:  proc/nbgrp/npool/nimage =      24

     Reading data from directory:
     ./work/band/Bi.save

     IMPORTANT: XC functional enforced from input :
     Exchange-correlation      = PBE ( 1  4  3  4 0 0)
     Any further DFT definition will be discarded
     Please, verify this is what you really want

 
     Parallelization info
     --------------------
     sticks:   dense  smooth     PW     G-vecs:    dense   smooth      PW
     Min          91      91     25                 2787     2787     410
     Max          92      92     26                 2793     2793     413
     Sum        2197    2197    617                66925    66925    9883
 
     high-symmetry point:  0.0000 0.0000 0.0000   x coordinate   0.0000
     high-symmetry point:  0.0000 0.0000 0.6009   x coordinate   0.6009
     high-symmetry point:  0.5397 0.0000 0.6009   x coordinate   1.1406
     high-symmetry point:  0.7710-0.1335 0.2003   x coordinate   1.1406
     high-symmetry point:  0.5204 0.3005 0.2003   x coordinate   1.6417
     high-symmetry point:  0.0000 0.0000 0.0000   x coordinate   2.2751
     high-symmetry point:  0.7710 0.0000 0.0000   x coordinate   3.0461
     high-symmetry point:  0.6553-0.0668 0.4006   x coordinate   3.0461
     high-symmetry point:  0.5204-0.3005 0.4006   x coordinate   3.3159
     high-symmetry point:  0.0000 0.0000 0.0000   x coordinate   4.0382

     Plottable bands (eV) written to file Bi.band.gnu
     Bands written to file Bi.band

 **************************************************************************

                    xk=(   0.00000,   0.00000,   0.00000  )

     double point group D_3d (-3m) 
     there are 12 classes and  6 irreducible representations
     the character table:

       E     -E    2C3   -2C3  3C2'  -3C2' i     -i    2S6   -2S6  3s_v  -3s_v
                                                                              
G_4+   2.00 -2.00  1.00 -1.00  0.00  0.00  2.00 -2.00  1.00 -1.00  0.00  0.00
G_5+   1.00 -1.00 -1.00  1.00  0.00  0.00  1.00 -1.00 -1.00  1.00  0.00  0.00
G_6+   1.00 -1.00 -1.00  1.00  0.00  0.00  1.00 -1.00 -1.00  1.00  0.00  0.00
G_4-   2.00 -2.00  1.00 -1.00  0.00  0.00 -2.00  2.00 -1.00  1.00  0.00  0.00
G_5-   1.00 -1.00 -1.00  1.00  0.00  0.00 -1.00  1.00  1.00 -1.00  0.00  0.00
G_6-   1.00 -1.00 -1.00  1.00  0.00  0.00 -1.00  1.00  1.00 -1.00  0.00  0.00

     imaginary part

       E     -E    2C3   -2C3  3C2'  -3C2' i     -i    2S6   -2S6  3s_v  -3s_v
                                                                              
G_4+   0.00  0.00  0.00  0.00  0.00  0.00  0.00  0.00  0.00  0.00  0.00  0.00
G_5+   0.00  0.00  0.00  0.00  1.00 -1.00  0.00  0.00  0.00  0.00  1.00 -1.00
G_6+   0.00  0.00  0.00  0.00 -1.00  1.00  0.00  0.00  0.00  0.00 -1.00  1.00
G_4-   0.00  0.00  0.00  0.00  0.00  0.00  0.00  0.00  0.00  0.00  0.00  0.00
G_5-   0.00  0.00  0.00  0.00  1.00 -1.00  0.00  0.00  0.00  0.00 -1.00  1.00
G_6-   0.00  0.00  0.00  0.00 -1.00  1.00  0.00  0.00  0.00  0.00  1.00 -1.00

     the symmetry operations in each class and the name of the first element:

     E             1
                                                                 
     -E           -1
                                                                 
     2C3           3    4
                                                                 
     -2C3         -3   -4
                                                                 
     3C2'          2   -5   -6
                                                                 
     3C2'          5    6   -2
                                                                 
     i             7
                                                                 
     -i           -7
                                                                 
     2S6           9   10
                                                                 
     -2S6         -9  -10
                                                                 
     3s_v          8  -11  -12
                                                                 
     3s_v         11   12   -8
                                                                 

     Band symmetry, D_3d (-3m)  double point group:

     e(  1 -  2) =    -14.94808  eV     2   --> G_5+  L_4+     
     e(  1 -  2) =    -14.94808  eV     2   --> G_6+  L_5+     
     e(  3 -  4) =    -14.94325  eV     2   --> G_4+  L_6+     
     e(  5 -  6) =    -14.88820  eV     2   --> G_5-  L_4-     
     e(  5 -  6) =    -14.88820  eV     2   --> G_6-  L_5-     
     e(  7 -  8) =    -14.88579  eV     2   --> G_4-  L_6-     
     e(  9 - 10) =    -12.02684  eV     2   --> G_4+  L_6+     
     e( 11 - 12) =    -12.01707  eV     2   --> G_5+  L_4+     
     e( 11 - 12) =    -12.01707  eV     2   --> G_6+  L_5+     
     e( 13 - 14) =    -12.01185  eV     2   --> G_4-  L_6-     
     e( 15 - 16) =    -11.82976  eV     2   --> G_4+  L_6+     
     e( 17 - 18) =    -11.82417  eV     2   --> G_5-  L_4-     
     e( 17 - 18) =    -11.82417  eV     2   --> G_6-  L_5-     
     e( 19 - 20) =    -11.82145  eV     2   --> G_4-  L_6-     
     e( 21 - 22) =     -3.40266  eV     2   --> G_4+  L_6+     
     e( 23 - 24) =      1.75966  eV     2   --> G_4-  L_6-     
     e( 25 - 26) =      6.43490  eV     2   --> G_4+  L_6+     
     e( 27 - 28) =      8.59250  eV     2   --> G_4+  L_6+     
     e( 29 - 30) =      8.84299  eV     2   --> G_5+  L_4+     
     e( 29 - 30) =      8.84299  eV     2   --> G_6+  L_5+     
     e( 31 - 32) =     10.19856  eV     2   --> G_4-  L_6-     
     e( 33 - 34) =     12.69879  eV     2   --> G_4-  L_6-     
     e( 35 - 36) =     12.91898  eV     2   --> G_5-  L_4-     
     e( 35 - 36) =     12.91898  eV     2   --> G_6-  L_5-     
     e( 37 - 38) =     14.74175  eV     2   --> G_4-  L_6-     

 **************************************************************************

 **************************************************************************

                    xk=(   0.00000,   0.00000,   0.01002  )

     double point group C_3v (3m)  
     there are  6 classes and  3 irreducible representations
     the character table:

       E     -E    2C3   -2C3  3s_v  -3s_v
                                          
G_4    2.00 -2.00  1.00 -1.00  0.00  0.00
G_5    1.00 -1.00 -1.00  1.00  0.00  0.00
G_6    1.00 -1.00 -1.00  1.00  0.00  0.00

     imaginary part

       E     -E    2C3   -2C3  3s_v  -3s_v
                                          
G_4    0.00  0.00  0.00  0.00  0.00  0.00
G_5    0.00  0.00  0.00  0.00  1.00 -1.00
G_6    0.00  0.00  0.00  0.00 -1.00  1.00

     the symmetry operations in each class and the name of the first element:

     E             1
                                                                 
     -E           -1
                                                                 
     2C3           2    3
                                                                 
     -2C3         -2   -3
                                                                 
     3s_v          4   -5   -6
                                                                 
     3s_v          5    6   -4
                                                                 

     Band symmetry, C_3v (3m)   double point group:

     e(  1 -  2) =    -14.94807  eV     2   --> G_5   L_4      
     e(  1 -  2) =    -14.94807  eV     2   --> G_6   L_5      
     e(  3 -  4) =    -14.94324  eV     2   --> G_4   L_6      
     e(  5 -  6) =    -14.88821  eV     2   --> G_5   L_4      
     e(  5 -  6) =    -14.88821  eV     2   --> G_6   L_5      
     e(  7 -  8) =    -14.88579  eV     2   --> G_4   L_6      
     e(  9 - 10) =    -12.02682  eV     2   --> G_4   L_6      
     e( 11 - 12) =    -12.01704  eV     2   --> G_5   L_4      
     e( 11 - 12) =    -12.01704  eV     2   --> G_6   L_5      
     e( 13 - 14) =    -12.01182  eV     2   --> G_4   L_6      
     e( 15 - 16) =    -11.82978  eV     2   --> G_4   L_6      
     e( 17 - 18) =    -11.82420  eV     2   --> G_5   L_4      
     e( 17 - 18) =    -11.82420  eV     2   --> G_6   L_5      
     e( 19 - 20) =    -11.82148  eV     2   --> G_4   L_6      
     e( 21 - 22) =     -3.40214  eV     2   --> G_4   L_6      
     e( 23 - 24) =      1.75818  eV     2   --> G_4   L_6      
     e( 25 - 26) =      6.43549  eV     2   --> G_4   L_6      
     e( 27 - 28) =      8.59268  eV     2   --> G_4   L_6      
     e( 29 - 30) =      8.84316  eV     2   --> G_5   L_4      
     e( 29 - 30) =      8.84316  eV     2   --> G_6   L_5      
     e( 31 - 32) =     10.19741  eV     2   --> G_4   L_6      
     e( 33 - 34) =     12.69609  eV     2   --> G_4   L_6      
     e( 35 - 36) =     12.91669  eV     2   --> G_5   L_4      
     e( 35 - 36) =     12.91669  eV     2   --> G_6   L_5      
     e( 37 - 38) =     14.73539  eV     2   --> G_4   L_6      

 **************************************************************************

 **************************************************************************

                    xk=(   0.00000,   0.00000,   0.02003  )

     Band symmetry, C_3v (3m)   double point group:

     e(  1 -  2) =    -14.94805  eV     2   --> G_5   L_4      
     e(  1 -  2) =    -14.94805  eV     2   --> G_6   L_5      
     e(  3 -  4) =    -14.94321  eV     2   --> G_4   L_6      
     e(  5 -  6) =    -14.88822  eV     2   --> G_5   L_4      
     e(  5 -  6) =    -14.88822  eV     2   --> G_6   L_5      
     e(  7 -  8) =    -14.88581  eV     2   --> G_4   L_6      
     e(  9 - 10) =    -12.02676  eV     2   --> G_4   L_6      
     e( 11 - 12) =    -12.01697  eV     2   --> G_5   L_4      
     e( 11 - 12) =    -12.01697  eV     2   --> G_6   L_5      
     e( 13 - 14) =    -12.01175  eV     2   --> G_4   L_6      
     e( 15 - 16) =    -11.82985  eV     2   --> G_4   L_6      
     e( 17 - 18) =    -11.82429  eV     2   --> G_5   L_4      
     e( 17 - 18) =    -11.82429  eV     2   --> G_6   L_5      
     e( 19 - 20) =    -11.82156  eV     2   --> G_4   L_6      
     e( 21 - 22) =     -3.40058  eV     2   --> G_4   L_6      
     e( 23 - 24) =      1.75375  eV     2   --> G_4   L_6      
     e( 25 - 26) =      6.43725  eV     2   --> G_4   L_6      
     e( 27 - 28) =      8.59319  eV     2   --> G_4   L_6      
     e( 29 - 30) =      8.84368  eV     2   --> G_5   L_4      
     e( 29 - 30) =      8.84368  eV     2   --> G_6   L_5      
     e( 31 - 32) =     10.19397  eV     2   --> G_4   L_6      
     e( 33 - 34) =     12.68803  eV     2   --> G_4   L_6      
     e( 35 - 36) =     12.90983  eV     2   --> G_5   L_4      
     e( 35 - 36) =     12.90983  eV     2   --> G_6   L_5      
     e( 37 - 38) =     14.71738  eV     2   --> G_4   L_6      

 **************************************************************************

 **************************************************************************

                    xk=(   0.00000,   0.00000,   0.03005  )

     Band symmetry, C_3v (3m)   double point group:

     e(  1 -  2) =    -14.94800  eV     2   --> G_5   L_4      
     e(  1 -  2) =    -14.94800  eV     2   --> G_6   L_5      
     e(  3 -  4) =    -14.94314  eV     2   --> G_4   L_6      
     e(  5 -  6) =    -14.88824  eV     2   --> G_5   L_4      
     e(  5 -  6) =    -14.88824  eV     2   --> G_6   L_5      
     e(  7 -  8) =    -14.88583  eV     2   --> G_4   L_6      
     e(  9 - 10) =    -12.02667  eV     2   --> G_4   L_6      
     e( 11 - 12) =    -12.01684  eV     2   --> G_5   L_4      
     e( 11 - 12) =    -12.01684  eV     2   --> G_6   L_5      
     e( 13 - 14) =    -12.01162  eV     2   --> G_4   L_6      
     e( 15 - 16) =    -11.82996  eV     2   --> G_4   L_6      
     e( 17 - 18) =    -11.82444  eV     2   --> G_5   L_4      
     e( 17 - 18) =    -11.82444  eV     2   --> G_6   L_5      
     e( 19 - 20) =    -11.82170  eV     2   --> G_4   L_6      
     e( 21 - 22) =     -3.39797  eV     2   --> G_4   L_6      
     e( 23 - 24) =      1.74639  eV     2   --> G_4   L_6      
     e( 25 - 26) =      6.44017  eV     2   --> G_4   L_6      
     e( 27 - 28) =      8.59404  eV     2   --> G_4   L_6      
     e( 29 - 30) =      8.84456  eV     2   --> G_5   L_4      
     e( 29 - 30) =      8.84456  eV     2   --> G_6   L_5      
     e( 31 - 32) =     10.18826  eV     2   --> G_4   L_6      
     e( 33 - 34) =     12.67471  eV     2   --> G_4   L_6      
     e( 35 - 36) =     12.89848  eV     2   --> G_5   L_4      
     e( 35 - 36) =     12.89848  eV     2   --> G_6   L_5      
     e( 37 - 38) =     14.69030  eV     2   --> G_4   L_6      

 **************************************************************************

 **************************************************************************

                    xk=(   0.00000,   0.00000,   0.04006  )

     Band symmetry, C_3v (3m)   double point group:

     e(  1 -  2) =    -14.94794  eV     2   --> G_5   L_4      
     e(  1 -  2) =    -14.94794  eV     2   --> G_6   L_5      
     e(  3 -  4) =    -14.94306  eV     2   --> G_4   L_6      
     e(  5 -  6) =    -14.88827  eV     2   --> G_5   L_4      
     e(  5 -  6) =    -14.88827  eV     2   --> G_6   L_5      
     e(  7 -  8) =    -14.88587  eV     2   --> G_4   L_6      
     e(  9 - 10) =    -12.02654  eV     2   --> G_4   L_6      
     e( 11 - 12) =    -12.01666  eV     2   --> G_5   L_4      
     e( 11 - 12) =    -12.01666  eV     2   --> G_6   L_5      
     e( 13 - 14) =    -12.01145  eV     2   --> G_4   L_6      
     e( 15 - 16) =    -11.83011  eV     2   --> G_4   L_6      
     e( 17 - 18) =    -11.82466  eV     2   --> G_5   L_4      
     e( 17 - 18) =    -11.82466  eV     2   --> G_6   L_5      
     e( 19 - 20) =    -11.82190  eV     2   --> G_4   L_6      
     e( 21 - 22) =     -3.39432  eV     2   --> G_4   L_6      
     e( 23 - 24) =      1.73613  eV     2   --> G_4   L_6      
     e( 25 - 26) =      6.44424  eV     2   --> G_4   L_6      
     e( 27 - 28) =      8.59521  eV     2   --> G_4   L_6      
     e( 29 - 30) =      8.84578  eV     2   --> G_5   L_4      
     e( 29 - 30) =      8.84578  eV     2   --> G_6   L_5      
     e( 31 - 32) =     10.18032  eV     2   --> G_4   L_6      
     e( 33 - 34) =     12.65628  eV     2   --> G_4   L_6      
     e( 35 - 36) =     12.88272  eV     2   --> G_5   L_4      
     e( 35 - 36) =     12.88272  eV     2   --> G_6   L_5      
     e( 37 - 38) =     14.65726  eV     2   --> G_4   L_6      

 **************************************************************************

 **************************************************************************

                    xk=(   0.00000,   0.00000,   0.05008  )

     Band symmetry, C_3v (3m)   double point group:

     e(  1 -  2) =    -14.94786  eV     2   --> G_5   L_4      
     e(  1 -  2) =    -14.94786  eV     2   --> G_6   L_5      
     e(  3 -  4) =    -14.94295  eV     2   --> G_4   L_6      
     e(  5 -  6) =    -14.88831  eV     2   --> G_5   L_4      
     e(  5 -  6) =    -14.88831  eV     2   --> G_6   L_5      
     e(  7 -  8) =    -14.88592  eV     2   --> G_4   L_6      
     e(  9 - 10) =    -12.02638  eV     2   --> G_4   L_6      
     e( 11 - 12) =    -12.01643  eV     2   --> G_5   L_4      
     e( 11 - 12) =    -12.01643  eV     2   --> G_6   L_5      
     e( 13 - 14) =    -12.01123  eV     2   --> G_4   L_6      
     e( 15 - 16) =    -11.83031  eV     2   --> G_4   L_6      
     e( 17 - 18) =    -11.82493  eV     2   --> G_5   L_4      
     e( 17 - 18) =    -11.82493  eV     2   --> G_6   L_5      
     e( 19 - 20) =    -11.82215  eV     2   --> G_4   L_6      
     e( 21 - 22) =     -3.38963  eV     2   --> G_4   L_6      
     e( 23 - 24) =      1.72298  eV     2   --> G_4   L_6      
     e( 25 - 26) =      6.44945  eV     2   --> G_4   L_6      
     e( 27 - 28) =      8.59669  eV     2   --> G_4   L_6      
     e( 29 - 30) =      8.84736  eV     2   --> G_5   L_4      
     e( 29 - 30) =      8.84736  eV     2   --> G_6   L_5      
     e( 31 - 32) =     10.17020  eV     2   --> G_4   L_6      
     e( 33 - 34) =     12.63295  eV     2   --> G_4   L_6      
     e( 35 - 36) =     12.86270  eV     2   --> G_5   L_4      
     e( 35 - 36) =     12.86270  eV     2   --> G_6   L_5      
     e( 37 - 38) =     14.62095  eV     2   --> G_4   L_6      

 **************************************************************************

 **************************************************************************

                    xk=(   0.00000,   0.00000,   0.06009  )

     Band symmetry, C_3v (3m)   double point group:

     e(  1 -  2) =    -14.94776  eV     2   --> G_5   L_4      
     e(  1 -  2) =    -14.94776  eV     2   --> G_6   L_5      
     e(  3 -  4) =    -14.94282  eV     2   --> G_4   L_6      
     e(  5 -  6) =    -14.88836  eV     2   --> G_5   L_4      
     e(  5 -  6) =    -14.88836  eV     2   --> G_6   L_5      
     e(  7 -  8) =    -14.88597  eV     2   --> G_4   L_6      
     e(  9 - 10) =    -12.02618  eV     2   --> G_4   L_6      
     e( 11 - 12) =    -12.01616  eV     2   --> G_5   L_4      
     e( 11 - 12) =    -12.01616  eV     2   --> G_6   L_5      
     e( 13 - 14) =    -12.01096  eV     2   --> G_4   L_6      
     e( 15 - 16) =    -11.83056  eV     2   --> G_4   L_6      
     e( 17 - 18) =    -11.82526  eV     2   --> G_5   L_4      
     e( 17 - 18) =    -11.82526  eV     2   --> G_6   L_5      
     e( 19 - 20) =    -11.82246  eV     2   --> G_4   L_6      
     e( 21 - 22) =     -3.38391  eV     2   --> G_4   L_6      
     e( 23 - 24) =      1.70702  eV     2   --> G_4   L_6      
     e( 25 - 26) =      6.45576  eV     2   --> G_4   L_6      
     e( 27 - 28) =      8.59845  eV     2   --> G_4   L_6      
     e( 29 - 30) =      8.84930  eV     2   --> G_5   L_4      
     e( 29 - 30) =      8.84930  eV     2   --> G_6   L_5      
     e( 31 - 32) =     10.15796  eV     2   --> G_4   L_6      
     e( 33 - 34) =     12.60499  eV     2   --> G_4   L_6      
     e( 35 - 36) =     12.83859  eV     2   --> G_5   L_4      
     e( 35 - 36) =     12.83859  eV     2   --> G_6   L_5      
     e( 37 - 38) =     14.58345  eV     2   --> G_4   L_6      

 **************************************************************************

 **************************************************************************

                    xk=(   0.00000,   0.00000,   0.07011  )

     Band symmetry, C_3v (3m)   double point group:

     e(  1 -  2) =    -14.94764  eV     2   --> G_5   L_4      
     e(  1 -  2) =    -14.94764  eV     2   --> G_6   L_5      
     e(  3 -  4) =    -14.94266  eV     2   --> G_4   L_6      
     e(  5 -  6) =    -14.88842  eV     2   --> G_5   L_4      
     e(  5 -  6) =    -14.88842  eV     2   --> G_6   L_5      
     e(  7 -  8) =    -14.88604  eV     2   --> G_4   L_6      
     e(  9 - 10) =    -12.02594  eV     2   --> G_4   L_6      
     e( 11 - 12) =    -12.01583  eV     2   --> G_5   L_4      
     e( 11 - 12) =    -12.01583  eV     2   --> G_6   L_5      
     e( 13 - 14) =    -12.01065  eV     2   --> G_4   L_6      
     e( 15 - 16) =    -11.83084  eV     2   --> G_4   L_6      
     e( 17 - 18) =    -11.82565  eV     2   --> G_5   L_4      
     e( 17 - 18) =    -11.82565  eV     2   --> G_6   L_5      
     e( 19 - 20) =    -11.82282  eV     2   --> G_4   L_6      
     e( 21 - 22) =     -3.37715  eV     2   --> G_4   L_6      
     e( 23 - 24) =      1.68828  eV     2   --> G_4   L_6      
     e( 25 - 26) =      6.46315  eV     2   --> G_4   L_6      
     e( 27 - 28) =      8.60047  eV     2   --> G_4   L_6      
     e( 29 - 30) =      8.85160  eV     2   --> G_5   L_4      
     e( 29 - 30) =      8.85160  eV     2   --> G_6   L_5      
     e( 31 - 32) =     10.14369  eV     2   --> G_4   L_6      
     e( 33 - 34) =     12.57268  eV     2   --> G_4   L_6      
     e( 35 - 36) =     12.81058  eV     2   --> G_5   L_4      
     e( 35 - 36) =     12.81058  eV     2   --> G_6   L_5      
     e( 37 - 38) =     14.54624  eV     2   --> G_4   L_6      

 **************************************************************************

 **************************************************************************

                    xk=(   0.00000,   0.00000,   0.08012  )

     Band symmetry, C_3v (3m)   double point group:

     e(  1 -  2) =    -14.94751  eV     2   --> G_5   L_4      
     e(  1 -  2) =    -14.94751  eV     2   --> G_6   L_5      
     e(  3 -  4) =    -14.94248  eV     2   --> G_4   L_6      
     e(  5 -  6) =    -14.88849  eV     2   --> G_5   L_4      
     e(  5 -  6) =    -14.88849  eV     2   --> G_6   L_5      
     e(  7 -  8) =    -14.88612  eV     2   --> G_4   L_6      
     e(  9 - 10) =    -12.02567  eV     2   --> G_4   L_6      
     e( 11 - 12) =    -12.01545  eV     2   --> G_5   L_4      
     e( 11 - 12) =    -12.01545  eV     2   --> G_6   L_5      
     e( 13 - 14) =    -12.01028  eV     2   --> G_4   L_6      
     e( 15 - 16) =    -11.83117  eV     2   --> G_4   L_6      
     e( 17 - 18) =    -11.82610  eV     2   --> G_5   L_4      
     e( 17 - 18) =    -11.82610  eV     2   --> G_6   L_5      
     e( 19 - 20) =    -11.82324  eV     2   --> G_4   L_6      
     e( 21 - 22) =     -3.36935  eV     2   --> G_4   L_6      
     e( 23 - 24) =      1.66683  eV     2   --> G_4   L_6      
     e( 25 - 26) =      6.47159  eV     2   --> G_4   L_6      
     e( 27 - 28) =      8.60271  eV     2   --> G_4   L_6      
     e( 29 - 30) =      8.85427  eV     2   --> G_5   L_4      
     e( 29 - 30) =      8.85427  eV     2   --> G_6   L_5      
     e( 31 - 32) =     10.12747  eV     2   --> G_4   L_6      
     e( 33 - 34) =     12.53633  eV     2   --> G_4   L_6      
     e( 35 - 36) =     12.77889  eV     2   --> G_5   L_4      
     e( 35 - 36) =     12.77889  eV     2   --> G_6   L_5      
     e( 37 - 38) =     14.51035  eV     2   --> G_4   L_6      

 **************************************************************************

 **************************************************************************

                    xk=(   0.00000,   0.00000,   0.09014  )

     Band symmetry, C_3v (3m)   double point group:

     e(  1 -  2) =    -14.94736  eV     2   --> G_5   L_4      
     e(  1 -  2) =    -14.94736  eV     2   --> G_6   L_5      
     e(  3 -  4) =    -14.94228  eV     2   --> G_4   L_6      
     e(  5 -  6) =    -14.88856  eV     2   --> G_5   L_4      
     e(  5 -  6) =    -14.88856  eV     2   --> G_6   L_5      
     e(  7 -  8) =    -14.88621  eV     2   --> G_4   L_6      
     e(  9 - 10) =    -12.02536  eV     2   --> G_4   L_6      
     e( 11 - 12) =    -12.01502  eV     2   --> G_5   L_4      
     e( 11 - 12) =    -12.01502  eV     2   --> G_6   L_5      
     e( 13 - 14) =    -12.00987  eV     2   --> G_4   L_6      
     e( 15 - 16) =    -11.83155  eV     2   --> G_4   L_6      
     e( 17 - 18) =    -11.82661  eV     2   --> G_5   L_4      
     e( 17 - 18) =    -11.82661  eV     2   --> G_6   L_5      
     e( 19 - 20) =    -11.82370  eV     2   --> G_4   L_6      
     e( 21 - 22) =     -3.36053  eV     2   --> G_4   L_6      
     e( 23 - 24) =      1.64273  eV     2   --> G_4   L_6      
     e( 25 - 26) =      6.48104  eV     2   --> G_4   L_6      
     e( 27 - 28) =      8.60515  eV     2   --> G_4   L_6      
     e( 29 - 30) =      8.85731  eV     2   --> G_5   L_4      
     e( 29 - 30) =      8.85731  eV     2   --> G_6   L_5      
     e( 31 - 32) =     10.10940  eV     2   --> G_4   L_6      
     e( 33 - 34) =     12.49627  eV     2   --> G_4   L_6      
     e( 35 - 36) =     12.74374  eV     2   --> G_5   L_4      
     e( 35 - 36) =     12.74374  eV     2   --> G_6   L_5      
     e( 37 - 38) =     14.47650  eV     2   --> G_4   L_6      

 **************************************************************************

 **************************************************************************

                    xk=(   0.00000,   0.00000,   0.10016  )

     Band symmetry, C_3v (3m)   double point group:

     e(  1 -  2) =    -14.94719  eV     2   --> G_5   L_4      
     e(  1 -  2) =    -14.94719  eV     2   --> G_6   L_5      
     e(  3 -  4) =    -14.94205  eV     2   --> G_4   L_6      
     e(  5 -  6) =    -14.88865  eV     2   --> G_5   L_4      
     e(  5 -  6) =    -14.88865  eV     2   --> G_6   L_5      
     e(  7 -  8) =    -14.88631  eV     2   --> G_4   L_6      
     e(  9 - 10) =    -12.02502  eV     2   --> G_4   L_6      
     e( 11 - 12) =    -12.01455  eV     2   --> G_5   L_4      
     e( 11 - 12) =    -12.01455  eV     2   --> G_6   L_5      
     e( 13 - 14) =    -12.00941  eV     2   --> G_4   L_6      
     e( 15 - 16) =    -11.83197  eV     2   --> G_4   L_6      
     e( 17 - 18) =    -11.82717  eV     2   --> G_5   L_4      
     e( 17 - 18) =    -11.82717  eV     2   --> G_6   L_5      
     e( 19 - 20) =    -11.82422  eV     2   --> G_4   L_6      
     e( 21 - 22) =     -3.35068  eV     2   --> G_4   L_6      
     e( 23 - 24) =      1.61608  eV     2   --> G_4   L_6      
     e( 25 - 26) =      6.49147  eV     2   --> G_4   L_6      
     e( 27 - 28) =      8.60773  eV     2   --> G_4   L_6      
     e( 29 - 30) =      8.86073  eV     2   --> G_5   L_4      
     e( 29 - 30) =      8.86073  eV     2   --> G_6   L_5      
     e( 31 - 32) =     10.08959  eV     2   --> G_4   L_6      
     e( 33 - 34) =     12.45284  eV     2   --> G_4   L_6      
     e( 35 - 36) =     12.70540  eV     2   --> G_5   L_4      
     e( 35 - 36) =     12.70540  eV     2   --> G_6   L_5      
     e( 37 - 38) =     14.44519  eV     2   --> G_4   L_6      

 **************************************************************************

 **************************************************************************

                    xk=(   0.00000,   0.00000,   0.11017  )

     Band symmetry, C_3v (3m)   double point group:

     e(  1 -  2) =    -14.94701  eV     2   --> G_5   L_4      
     e(  1 -  2) =    -14.94701  eV     2   --> G_6   L_5      
     e(  3 -  4) =    -14.94181  eV     2   --> G_4   L_6      
     e(  5 -  6) =    -14.88874  eV     2   --> G_5   L_4      
     e(  5 -  6) =    -14.88874  eV     2   --> G_6   L_5      
     e(  7 -  8) =    -14.88642  eV     2   --> G_4   L_6      
     e(  9 - 10) =    -12.02464  eV     2   --> G_4   L_6      
     e( 11 - 12) =    -12.01402  eV     2   --> G_5   L_4      
     e( 11 - 12) =    -12.01402  eV     2   --> G_6   L_5      
     e( 13 - 14) =    -12.00891  eV     2   --> G_4   L_6      
     e( 15 - 16) =    -11.83243  eV     2   --> G_4   L_6      
     e( 17 - 18) =    -11.82780  eV     2   --> G_5   L_4      
     e( 17 - 18) =    -11.82780  eV     2   --> G_6   L_5      
     e( 19 - 20) =    -11.82479  eV     2   --> G_4   L_6      
     e( 21 - 22) =     -3.33981  eV     2   --> G_4   L_6      
     e( 23 - 24) =      1.58695  eV     2   --> G_4   L_6      
     e( 25 - 26) =      6.50284  eV     2   --> G_4   L_6      
     e( 27 - 28) =      8.61042  eV     2   --> G_4   L_6      
     e( 29 - 30) =      8.86454  eV     2   --> G_5   L_4      
     e( 29 - 30) =      8.86454  eV     2   --> G_6   L_5      
     e( 31 - 32) =     10.06816  eV     2   --> G_4   L_6      
     e( 33 - 34) =     12.40636  eV     2   --> G_4   L_6      
     e( 35 - 36) =     12.66411  eV     2   --> G_5   L_4      
     e( 35 - 36) =     12.66411  eV     2   --> G_6   L_5      
     e( 37 - 38) =     14.41678  eV     2   --> G_4   L_6      

 **************************************************************************

 **************************************************************************

                    xk=(   0.00000,   0.00000,   0.12019  )

     Band symmetry, C_3v (3m)   double point group:

     e(  1 -  2) =    -14.94681  eV     2   --> G_5   L_4      
     e(  1 -  2) =    -14.94681  eV     2   --> G_6   L_5      
     e(  3 -  4) =    -14.94154  eV     2   --> G_4   L_6      
     e(  5 -  6) =    -14.88884  eV     2   --> G_5   L_4      
     e(  5 -  6) =    -14.88884  eV     2   --> G_6   L_5      
     e(  7 -  8) =    -14.88653  eV     2   --> G_4   L_6      
     e(  9 - 10) =    -12.02423  eV     2   --> G_4   L_6      
     e( 11 - 12) =    -12.01345  eV     2   --> G_5   L_4      
     e( 11 - 12) =    -12.01345  eV     2   --> G_6   L_5      
     e( 13 - 14) =    -12.00836  eV     2   --> G_4   L_6      
     e( 15 - 16) =    -11.83293  eV     2   --> G_4   L_6      
     e( 17 - 18) =    -11.82848  eV     2   --> G_5   L_4      
     e( 17 - 18) =    -11.82848  eV     2   --> G_6   L_5      
     e( 19 - 20) =    -11.82541  eV     2   --> G_4   L_6      
     e( 21 - 22) =     -3.32792  eV     2   --> G_4   L_6      
     e( 23 - 24) =      1.55542  eV     2   --> G_4   L_6      
     e( 25 - 26) =      6.51511  eV     2   --> G_4   L_6      
     e( 27 - 28) =      8.61317  eV     2   --> G_4   L_6      
     e( 29 - 30) =      8.86873  eV     2   --> G_5   L_4      
     e( 29 - 30) =      8.86873  eV     2   --> G_6   L_5      
     e( 31 - 32) =     10.04523  eV     2   --> G_4   L_6      
     e( 33 - 34) =     12.35716  eV     2   --> G_4   L_6      
     e( 35 - 36) =     12.62011  eV     2   --> G_5   L_4      
     e( 35 - 36) =     12.62011  eV     2   --> G_6   L_5      
     e( 37 - 38) =     14.39153  eV     2   --> G_4   L_6      

 **************************************************************************

 **************************************************************************

                    xk=(   0.00000,   0.00000,   0.13020  )

     Band symmetry, C_3v (3m)   double point group:

     e(  1 -  2) =    -14.94659  eV     2   --> G_5   L_4      
     e(  1 -  2) =    -14.94659  eV     2   --> G_6   L_5      
     e(  3 -  4) =    -14.94124  eV     2   --> G_4   L_6      
     e(  5 -  6) =    -14.88895  eV     2   --> G_5   L_4      
     e(  5 -  6) =    -14.88895  eV     2   --> G_6   L_5      
     e(  7 -  8) =    -14.88667  eV     2   --> G_4   L_6      
     e(  9 - 10) =    -12.02378  eV     2   --> G_4   L_6      
     e( 11 - 12) =    -12.01283  eV     2   --> G_5   L_4      
     e( 11 - 12) =    -12.01283  eV     2   --> G_6   L_5      
     e( 13 - 14) =    -12.00777  eV     2   --> G_4   L_6      
     e( 15 - 16) =    -11.83348  eV     2   --> G_4   L_6      
     e( 17 - 18) =    -11.82921  eV     2   --> G_5   L_4      
     e( 17 - 18) =    -11.82921  eV     2   --> G_6   L_5      
     e( 19 - 20) =    -11.82608  eV     2   --> G_4   L_6      
     e( 21 - 22) =     -3.31502  eV     2   --> G_4   L_6      
     e( 23 - 24) =      1.52160  eV     2   --> G_4   L_6      
     e( 25 - 26) =      6.52824  eV     2   --> G_4   L_6      
     e( 27 - 28) =      8.61592  eV     2   --> G_4   L_6      
     e( 29 - 30) =      8.87333  eV     2   --> G_5   L_4      
     e( 29 - 30) =      8.87333  eV     2   --> G_6   L_5      
     e( 31 - 32) =     10.02094  eV     2   --> G_4   L_6      
     e( 33 - 34) =     12.30555  eV     2   --> G_4   L_6      
     e( 35 - 36) =     12.57367  eV     2   --> G_5   L_4      
     e( 35 - 36) =     12.57367  eV     2   --> G_6   L_5      
     e( 37 - 38) =     14.36962  eV     2   --> G_4   L_6      

 **************************************************************************

 **************************************************************************

                    xk=(   0.00000,   0.00000,   0.14022  )

     Band symmetry, C_3v (3m)   double point group:

     e(  1 -  2) =    -14.94636  eV     2   --> G_5   L_4      
     e(  1 -  2) =    -14.94636  eV     2   --> G_6   L_5      
     e(  3 -  4) =    -14.94093  eV     2   --> G_4   L_6      
     e(  5 -  6) =    -14.88907  eV     2   --> G_5   L_4      
     e(  5 -  6) =    -14.88907  eV     2   --> G_6   L_5      
     e(  7 -  8) =    -14.88681  eV     2   --> G_4   L_6      
     e(  9 - 10) =    -12.02330  eV     2   --> G_4   L_6      
     e( 11 - 12) =    -12.01216  eV     2   --> G_5   L_4      
     e( 11 - 12) =    -12.01216  eV     2   --> G_6   L_5      
     e( 13 - 14) =    -12.00714  eV     2   --> G_4   L_6      
     e( 15 - 16) =    -11.83407  eV     2   --> G_4   L_6      
     e( 17 - 18) =    -11.83000  eV     2   --> G_5   L_4      
     e( 17 - 18) =    -11.83000  eV     2   --> G_6   L_5      
     e( 19 - 20) =    -11.82679  eV     2   --> G_4   L_6      
     e( 21 - 22) =     -3.30112  eV     2   --> G_4   L_6      
     e( 23 - 24) =      1.48557  eV     2   --> G_4   L_6      
     e( 25 - 26) =      6.54218  eV     2   --> G_4   L_6      
     e( 27 - 28) =      8.61861  eV     2   --> G_4   L_6      
     e( 29 - 30) =      8.87834  eV     2   --> G_5   L_4      
     e( 29 - 30) =      8.87834  eV     2   --> G_6   L_5      
     e( 31 - 32) =      9.99543  eV     2   --> G_4   L_6      
     e( 33 - 34) =     12.25184  eV     2   --> G_4   L_6      
     e( 35 - 36) =     12.52503  eV     2   --> G_5   L_4      
     e( 35 - 36) =     12.52503  eV     2   --> G_6   L_5      
     e( 37 - 38) =     14.35120  eV     2   --> G_4   L_6      

 **************************************************************************

 **************************************************************************

                    xk=(   0.00000,   0.00000,   0.15023  )

     Band symmetry, C_3v (3m)   double point group:

     e(  1 -  2) =    -14.94611  eV     2   --> G_5   L_4      
     e(  1 -  2) =    -14.94611  eV     2   --> G_6   L_5      
     e(  3 -  4) =    -14.94059  eV     2   --> G_4   L_6      
     e(  5 -  6) =    -14.88920  eV     2   --> G_5   L_4      
     e(  5 -  6) =    -14.88920  eV     2   --> G_6   L_5      
     e(  7 -  8) =    -14.88696  eV     2   --> G_4   L_6      
     e(  9 - 10) =    -12.02278  eV     2   --> G_4   L_6      
     e( 11 - 12) =    -12.01145  eV     2   --> G_5   L_4      
     e( 11 - 12) =    -12.01145  eV     2   --> G_6   L_5      
     e( 13 - 14) =    -12.00646  eV     2   --> G_4   L_6      
     e( 15 - 16) =    -11.83470  eV     2   --> G_4   L_6      
     e( 17 - 18) =    -11.83084  eV     2   --> G_5   L_4      
     e( 17 - 18) =    -11.83084  eV     2   --> G_6   L_5      
     e( 19 - 20) =    -11.82755  eV     2   --> G_4   L_6      
     e( 21 - 22) =     -3.28621  eV     2   --> G_4   L_6      
     e( 23 - 24) =      1.44744  eV     2   --> G_4   L_6      
     e( 25 - 26) =      6.55689  eV     2   --> G_4   L_6      
     e( 27 - 28) =      8.62119  eV     2   --> G_4   L_6      
     e( 29 - 30) =      8.88376  eV     2   --> G_5   L_4      
     e( 29 - 30) =      8.88376  eV     2   --> G_6   L_5      
     e( 31 - 32) =      9.96884  eV     2   --> G_4   L_6      
     e( 33 - 34) =     12.19630  eV     2   --> G_4   L_6      
     e( 35 - 36) =     12.47441  eV     2   --> G_5   L_4      
     e( 35 - 36) =     12.47441  eV     2   --> G_6   L_5      
     e( 37 - 38) =     14.33634  eV     2   --> G_4   L_6      

 **************************************************************************

 **************************************************************************

                    xk=(   0.00000,   0.00000,   0.16025  )

     Band symmetry, C_3v (3m)   double point group:

     e(  1 -  2) =    -14.94585  eV     2   --> G_5   L_4      
     e(  1 -  2) =    -14.94585  eV     2   --> G_6   L_5      
     e(  3 -  4) =    -14.94024  eV     2   --> G_4   L_6      
     e(  5 -  6) =    -14.88933  eV     2   --> G_5   L_4      
     e(  5 -  6) =    -14.88933  eV     2   --> G_6   L_5      
     e(  7 -  8) =    -14.88712  eV     2   --> G_4   L_6      
     e(  9 - 10) =    -12.02223  eV     2   --> G_4   L_6      
     e( 11 - 12) =    -12.01069  eV     2   --> G_5   L_4      
     e( 11 - 12) =    -12.01069  eV     2   --> G_6   L_5      
     e( 13 - 14) =    -12.00574  eV     2   --> G_4   L_6      
     e( 15 - 16) =    -11.83537  eV     2   --> G_4   L_6      
     e( 17 - 18) =    -11.83174  eV     2   --> G_5   L_4      
     e( 17 - 18) =    -11.83174  eV     2   --> G_6   L_5      
     e( 19 - 20) =    -11.82835  eV     2   --> G_4   L_6      
     e( 21 - 22) =     -3.27032  eV     2   --> G_4   L_6      
     e( 23 - 24) =      1.40731  eV     2   --> G_4   L_6      
     e( 25 - 26) =      6.57235  eV     2   --> G_4   L_6      
     e( 27 - 28) =      8.62359  eV     2   --> G_4   L_6      
     e( 29 - 30) =      8.88961  eV     2   --> G_5   L_4      
     e( 29 - 30) =      8.88961  eV     2   --> G_6   L_5      
     e( 31 - 32) =      9.94133  eV     2   --> G_4   L_6      
     e( 33 - 34) =     12.13920  eV     2   --> G_4   L_6      
     e( 35 - 36) =     12.42206  eV     2   --> G_5   L_4      
     e( 35 - 36) =     12.42206  eV     2   --> G_6   L_5      
     e( 37 - 38) =     14.32512  eV     2   --> G_4   L_6      

 **************************************************************************

 **************************************************************************

                    xk=(   0.00000,   0.00000,   0.17026  )

     Band symmetry, C_3v (3m)   double point group:

     e(  1 -  2) =    -14.94558  eV     2   --> G_5   L_4      
     e(  1 -  2) =    -14.94558  eV     2   --> G_6   L_5      
     e(  3 -  4) =    -14.93987  eV     2   --> G_4   L_6      
     e(  5 -  6) =    -14.88948  eV     2   --> G_5   L_4      
     e(  5 -  6) =    -14.88948  eV     2   --> G_6   L_5      
     e(  7 -  8) =    -14.88729  eV     2   --> G_4   L_6      
     e(  9 - 10) =    -12.02165  eV     2   --> G_4   L_6      
     e( 11 - 12) =    -12.00989  eV     2   --> G_5   L_4      
     e( 11 - 12) =    -12.00989  eV     2   --> G_6   L_5      
     e( 13 - 14) =    -12.00499  eV     2   --> G_4   L_6      
     e( 15 - 16) =    -11.83609  eV     2   --> G_4   L_6      
     e( 17 - 18) =    -11.83269  eV     2   --> G_5   L_4      
     e( 17 - 18) =    -11.83269  eV     2   --> G_6   L_5      
     e( 19 - 20) =    -11.82919  eV     2   --> G_4   L_6      
     e( 21 - 22) =     -3.25344  eV     2   --> G_4   L_6      
     e( 23 - 24) =      1.36528  eV     2   --> G_4   L_6      
     e( 25 - 26) =      6.58849  eV     2   --> G_4   L_6      
     e( 27 - 28) =      8.62573  eV     2   --> G_4   L_6      
     e( 29 - 30) =      8.89589  eV     2   --> G_5   L_4      
     e( 29 - 30) =      8.89589  eV     2   --> G_6   L_5      
     e( 31 - 32) =      9.91304  eV     2   --> G_4   L_6      
     e( 33 - 34) =     12.08080  eV     2   --> G_4   L_6      
     e( 35 - 36) =     12.36818  eV     2   --> G_5   L_4      
     e( 35 - 36) =     12.36818  eV     2   --> G_6   L_5      
     e( 37 - 38) =     14.31757  eV     2   --> G_4   L_6      

 **************************************************************************

 **************************************************************************

                    xk=(   0.00000,   0.00000,   0.18028  )

     Band symmetry, C_3v (3m)   double point group:

     e(  1 -  2) =    -14.94529  eV     2   --> G_5   L_4      
     e(  1 -  2) =    -14.94529  eV     2   --> G_6   L_5      
     e(  3 -  4) =    -14.93947  eV     2   --> G_4   L_6      
     e(  5 -  6) =    -14.88963  eV     2   --> G_5   L_4      
     e(  5 -  6) =    -14.88963  eV     2   --> G_6   L_5      
     e(  7 -  8) =    -14.88747  eV     2   --> G_4   L_6      
     e(  9 - 10) =    -12.02104  eV     2   --> G_4   L_6      
     e( 11 - 12) =    -12.00904  eV     2   --> G_5   L_4      
     e( 11 - 12) =    -12.00904  eV     2   --> G_6   L_5      
     e( 13 - 14) =    -12.00419  eV     2   --> G_4   L_6      
     e( 15 - 16) =    -11.83684  eV     2   --> G_4   L_6      
     e( 17 - 18) =    -11.83369  eV     2   --> G_5   L_4      
     e( 17 - 18) =    -11.83369  eV     2   --> G_6   L_5      
     e( 19 - 20) =    -11.83008  eV     2   --> G_4   L_6      
     e( 21 - 22) =     -3.23559  eV     2   --> G_4   L_6      
     e( 23 - 24) =      1.32145  eV     2   --> G_4   L_6      
     e( 25 - 26) =      6.60530  eV     2   --> G_4   L_6      
     e( 27 - 28) =      8.62754  eV     2   --> G_4   L_6      
     e( 29 - 30) =      8.90261  eV     2   --> G_5   L_4      
     e( 29 - 30) =      8.90261  eV     2   --> G_6   L_5      
     e( 31 - 32) =      9.88413  eV     2   --> G_4   L_6      
     e( 33 - 34) =     12.02130  eV     2   --> G_4   L_6      
     e( 35 - 36) =     12.31299  eV     2   --> G_5   L_4      
     e( 35 - 36) =     12.31299  eV     2   --> G_6   L_5      
     e( 37 - 38) =     14.31373  eV     2   --> G_4   L_6      

 **************************************************************************

 **************************************************************************

                    xk=(   0.00000,   0.00000,   0.19030  )

     Band symmetry, C_3v (3m)   double point group:

     e(  1 -  2) =    -14.94499  eV     2   --> G_5   L_4      
     e(  1 -  2) =    -14.94499  eV     2   --> G_6   L_5      
     e(  3 -  4) =    -14.93906  eV     2   --> G_4   L_6      
     e(  5 -  6) =    -14.88978  eV     2   --> G_5   L_4      
     e(  5 -  6) =    -14.88978  eV     2   --> G_6   L_5      
     e(  7 -  8) =    -14.88767  eV     2   --> G_4   L_6      
     e(  9 - 10) =    -12.02040  eV     2   --> G_4   L_6      
     e( 11 - 12) =    -12.00815  eV     2   --> G_5   L_4      
     e( 11 - 12) =    -12.00815  eV     2   --> G_6   L_5      
     e( 13 - 14) =    -12.00336  eV     2   --> G_4   L_6      
     e( 15 - 16) =    -11.83764  eV     2   --> G_4   L_6      
     e( 17 - 18) =    -11.83473  eV     2   --> G_5   L_4      
     e( 17 - 18) =    -11.83473  eV     2   --> G_6   L_5      
     e( 19 - 20) =    -11.83100  eV     2   --> G_4   L_6      
     e( 21 - 22) =     -3.21677  eV     2   --> G_4   L_6      
     e( 23 - 24) =      1.27595  eV     2   --> G_4   L_6      
     e( 25 - 26) =      6.62273  eV     2   --> G_4   L_6      
     e( 27 - 28) =      8.62895  eV     2   --> G_4   L_6      
     e( 29 - 30) =      8.90978  eV     2   --> G_5   L_4      
     e( 29 - 30) =      8.90978  eV     2   --> G_6   L_5      
     e( 31 - 32) =      9.85478  eV     2   --> G_4   L_6      
     e( 33 - 34) =     11.96094  eV     2   --> G_4   L_6      
     e( 35 - 36) =     12.25666  eV     2   --> G_5   L_4      
     e( 35 - 36) =     12.25666  eV     2   --> G_6   L_5      
     e( 37 - 38) =     14.31359  eV     2   --> G_4   L_6      

 **************************************************************************

 **************************************************************************

                    xk=(   0.00000,   0.00000,   0.20031  )

     Band symmetry, C_3v (3m)   double point group:

     e(  1 -  2) =    -14.94467  eV     2   --> G_5   L_4      
     e(  1 -  2) =    -14.94467  eV     2   --> G_6   L_5      
     e(  3 -  4) =    -14.93863  eV     2   --> G_4   L_6      
     e(  5 -  6) =    -14.88995  eV     2   --> G_5   L_4      
     e(  5 -  6) =    -14.88995  eV     2   --> G_6   L_5      
     e(  7 -  8) =    -14.88787  eV     2   --> G_4   L_6      
     e(  9 - 10) =    -12.01972  eV     2   --> G_4   L_6      
     e( 11 - 12) =    -12.00721  eV     2   --> G_5   L_4      
     e( 11 - 12) =    -12.00721  eV     2   --> G_6   L_5      
     e( 13 - 14) =    -12.00249  eV     2   --> G_4   L_6      
     e( 15 - 16) =    -11.83847  eV     2   --> G_4   L_6      
     e( 17 - 18) =    -11.83583  eV     2   --> G_5   L_4      
     e( 17 - 18) =    -11.83583  eV     2   --> G_6   L_5      
     e( 19 - 20) =    -11.83195  eV     2   --> G_4   L_6      
     e( 21 - 22) =     -3.19699  eV     2   --> G_4   L_6      
     e( 23 - 24) =      1.22886  eV     2   --> G_4   L_6      
     e( 25 - 26) =      6.64075  eV     2   --> G_4   L_6      
     e( 27 - 28) =      8.62986  eV     2   --> G_4   L_6      
     e( 29 - 30) =      8.91742  eV     2   --> G_5   L_4      
     e( 29 - 30) =      8.91742  eV     2   --> G_6   L_5      
     e( 31 - 32) =      9.82515  eV     2   --> G_4   L_6      
     e( 33 - 34) =     11.89990  eV     2   --> G_4   L_6      
     e( 35 - 36) =     12.19939  eV     2   --> G_5   L_4      
     e( 35 - 36) =     12.19939  eV     2   --> G_6   L_5      
     e( 37 - 38) =     14.31715  eV     2   --> G_4   L_6      

 **************************************************************************

 **************************************************************************

                    xk=(   0.00000,   0.00000,   0.21033  )

     Band symmetry, C_3v (3m)   double point group:

     e(  1 -  2) =    -14.94435  eV     2   --> G_5   L_4      
     e(  1 -  2) =    -14.94435  eV     2   --> G_6   L_5      
     e(  3 -  4) =    -14.93818  eV     2   --> G_4   L_6      
     e(  5 -  6) =    -14.89012  eV     2   --> G_5   L_4      
     e(  5 -  6) =    -14.89012  eV     2   --> G_6   L_5      
     e(  7 -  8) =    -14.88808  eV     2   --> G_4   L_6      
     e(  9 - 10) =    -12.01902  eV     2   --> G_4   L_6      
     e( 11 - 12) =    -12.00624  eV     2   --> G_5   L_4      
     e( 11 - 12) =    -12.00624  eV     2   --> G_6   L_5      
     e( 13 - 14) =    -12.00158  eV     2   --> G_4   L_6      
     e( 15 - 16) =    -11.83934  eV     2   --> G_4   L_6      
     e( 17 - 18) =    -11.83697  eV     2   --> G_5   L_4      
     e( 17 - 18) =    -11.83697  eV     2   --> G_6   L_5      
     e( 19 - 20) =    -11.83294  eV     2   --> G_4   L_6      
     e( 21 - 22) =     -3.17627  eV     2   --> G_4   L_6      
     e( 23 - 24) =      1.18029  eV     2   --> G_4   L_6      
     e( 25 - 26) =      6.65932  eV     2   --> G_4   L_6      
     e( 27 - 28) =      8.63019  eV     2   --> G_4   L_6      
     e( 29 - 30) =      8.92552  eV     2   --> G_5   L_4      
     e( 29 - 30) =      8.92552  eV     2   --> G_6   L_5      
     e( 31 - 32) =      9.79540  eV     2   --> G_4   L_6      
     e( 33 - 34) =     11.83836  eV     2   --> G_4   L_6      
     e( 35 - 36) =     12.14134  eV     2   --> G_5   L_4      
     e( 35 - 36) =     12.14134  eV     2   --> G_6   L_5      
     e( 37 - 38) =     14.32440  eV     2   --> G_4   L_6      

 **************************************************************************

 **************************************************************************

                    xk=(   0.00000,   0.00000,   0.22034  )

     Band symmetry, C_3v (3m)   double point group:

     e(  1 -  2) =    -14.94401  eV     2   --> G_5   L_4      
     e(  1 -  2) =    -14.94401  eV     2   --> G_6   L_5      
     e(  3 -  4) =    -14.93771  eV     2   --> G_4   L_6      
     e(  5 -  6) =    -14.89031  eV     2   --> G_5   L_4      
     e(  5 -  6) =    -14.89031  eV     2   --> G_6   L_5      
     e(  7 -  8) =    -14.88831  eV     2   --> G_4   L_6      
     e(  9 - 10) =    -12.01829  eV     2   --> G_4   L_6      
     e( 11 - 12) =    -12.00522  eV     2   --> G_5   L_4      
     e( 11 - 12) =    -12.00522  eV     2   --> G_6   L_5      
     e( 13 - 14) =    -12.00065  eV     2   --> G_4   L_6      
     e( 15 - 16) =    -11.84025  eV     2   --> G_4   L_6      
     e( 17 - 18) =    -11.83815  eV     2   --> G_5   L_4      
     e( 17 - 18) =    -11.83815  eV     2   --> G_6   L_5      
     e( 19 - 20) =    -11.83395  eV     2   --> G_4   L_6      
     e( 21 - 22) =     -3.15462  eV     2   --> G_4   L_6      
     e( 23 - 24) =      1.13036  eV     2   --> G_4   L_6      
     e( 25 - 26) =      6.67843  eV     2   --> G_4   L_6      
     e( 27 - 28) =      8.62983  eV     2   --> G_4   L_6      
     e( 29 - 30) =      8.93410  eV     2   --> G_5   L_4      
     e( 29 - 30) =      8.93410  eV     2   --> G_6   L_5      
     e( 31 - 32) =      9.76573  eV     2   --> G_4   L_6      
     e( 33 - 34) =     11.77648  eV     2   --> G_4   L_6      
     e( 35 - 36) =     12.08266  eV     2   --> G_5   L_4      
     e( 35 - 36) =     12.08266  eV     2   --> G_6   L_5      
     e( 37 - 38) =     14.33531  eV     2   --> G_4   L_6      

 **************************************************************************

 **************************************************************************

                    xk=(   0.00000,   0.00000,   0.23036  )

     Band symmetry, C_3v (3m)   double point group:

     e(  1 -  2) =    -14.94366  eV     2   --> G_5   L_4      
     e(  1 -  2) =    -14.94366  eV     2   --> G_6   L_5      
     e(  3 -  4) =    -14.93723  eV     2   --> G_4   L_6      
     e(  5 -  6) =    -14.89049  eV     2   --> G_5   L_4      
     e(  5 -  6) =    -14.89049  eV     2   --> G_6   L_5      
     e(  7 -  8) =    -14.88854  eV     2   --> G_4   L_6      
     e(  9 - 10) =    -12.01753  eV     2   --> G_4   L_6      
     e( 11 - 12) =    -12.00417  eV     2   --> G_5   L_4      
     e( 11 - 12) =    -12.00417  eV     2   --> G_6   L_5      
     e( 13 - 14) =    -11.99968  eV     2   --> G_4   L_6      
     e( 15 - 16) =    -11.84120  eV     2   --> G_4   L_6      
     e( 17 - 18) =    -11.83938  eV     2   --> G_5   L_4      
     e( 17 - 18) =    -11.83938  eV     2   --> G_6   L_5      
     e( 19 - 20) =    -11.83500  eV     2   --> G_4   L_6      
     e( 21 - 22) =     -3.13205  eV     2   --> G_4   L_6      
     e( 23 - 24) =      1.07916  eV     2   --> G_4   L_6      
     e( 25 - 26) =      6.69804  eV     2   --> G_4   L_6      
     e( 27 - 28) =      8.62870  eV     2   --> G_4   L_6      
     e( 29 - 30) =      8.94316  eV     2   --> G_5   L_4      
     e( 29 - 30) =      8.94316  eV     2   --> G_6   L_5      
     e( 31 - 32) =      9.73630  eV     2   --> G_4   L_6      
     e( 33 - 34) =     11.71442  eV     2   --> G_4   L_6      
     e( 35 - 36) =     12.02351  eV     2   --> G_5   L_4      
     e( 35 - 36) =     12.02351  eV     2   --> G_6   L_5      
     e( 37 - 38) =     14.34986  eV     2   --> G_4   L_6      

 **************************************************************************

 **************************************************************************

                    xk=(   0.00000,   0.00000,   0.24037  )

     Band symmetry, C_3v (3m)   double point group:

     e(  1 -  2) =    -14.94330  eV     2   --> G_5   L_4      
     e(  1 -  2) =    -14.94330  eV     2   --> G_6   L_5      
     e(  3 -  4) =    -14.93674  eV     2   --> G_4   L_6      
     e(  5 -  6) =    -14.89069  eV     2   --> G_5   L_4      
     e(  5 -  6) =    -14.89069  eV     2   --> G_6   L_5      
     e(  7 -  8) =    -14.88879  eV     2   --> G_4   L_6      
     e(  9 - 10) =    -12.01675  eV     2   --> G_4   L_6      
     e( 11 - 12) =    -12.00308  eV     2   --> G_5   L_4      
     e( 11 - 12) =    -12.00308  eV     2   --> G_6   L_5      
     e( 13 - 14) =    -11.99868  eV     2   --> G_4   L_6      
     e( 15 - 16) =    -11.84218  eV     2   --> G_4   L_6      
     e( 17 - 18) =    -11.84065  eV     2   --> G_5   L_4      
     e( 17 - 18) =    -11.84065  eV     2   --> G_6   L_5      
     e( 19 - 20) =    -11.83607  eV     2   --> G_4   L_6      
     e( 21 - 22) =     -3.10858  eV     2   --> G_4   L_6      
     e( 23 - 24) =      1.02680  eV     2   --> G_4   L_6      
     e( 25 - 26) =      6.71813  eV     2   --> G_4   L_6      
     e( 27 - 28) =      8.62669  eV     2   --> G_4   L_6      
     e( 29 - 30) =      8.95271  eV     2   --> G_5   L_4      
     e( 29 - 30) =      8.95271  eV     2   --> G_6   L_5      
     e( 31 - 32) =      9.70730  eV     2   --> G_4   L_6      
     e( 33 - 34) =     11.65230  eV     2   --> G_4   L_6      
     e( 35 - 36) =     11.96401  eV     2   --> G_5   L_4      
     e( 35 - 36) =     11.96401  eV     2   --> G_6   L_5      
     e( 37 - 38) =     14.36801  eV     2   --> G_4   L_6      

 **************************************************************************

 **************************************************************************

                    xk=(   0.00000,   0.00000,   0.25039  )

     Band symmetry, C_3v (3m)   double point group:

     e(  1 -  2) =    -14.94293  eV     2   --> G_5   L_4      
     e(  1 -  2) =    -14.94293  eV     2   --> G_6   L_5      
     e(  3 -  4) =    -14.93623  eV     2   --> G_4   L_6      
     e(  5 -  6) =    -14.89089  eV     2   --> G_5   L_4      
     e(  5 -  6) =    -14.89089  eV     2   --> G_6   L_5      
     e(  7 -  8) =    -14.88904  eV     2   --> G_4   L_6      
     e(  9 - 10) =    -12.01594  eV     2   --> G_4   L_6      
     e( 11 - 12) =    -12.00195  eV     2   --> G_5   L_4      
     e( 11 - 12) =    -12.00195  eV     2   --> G_6   L_5      
     e( 13 - 14) =    -11.99766  eV     2   --> G_4   L_6      
     e( 15 - 16) =    -11.84319  eV     2   --> G_4   L_6      
     e( 17 - 18) =    -11.84196  eV     2   --> G_5   L_4      
     e( 17 - 18) =    -11.84196  eV     2   --> G_6   L_5      
     e( 19 - 20) =    -11.83717  eV     2   --> G_4   L_6      
     e( 21 - 22) =     -3.08422  eV     2   --> G_4   L_6      
     e( 23 - 24) =      0.97339  eV     2   --> G_4   L_6      
     e( 25 - 26) =      6.73867  eV     2   --> G_4   L_6      
     e( 27 - 28) =      8.62369  eV     2   --> G_4   L_6      
     e( 29 - 30) =      8.96276  eV     2   --> G_5   L_4      
     e( 29 - 30) =      8.96276  eV     2   --> G_6   L_5      
     e( 31 - 32) =      9.67891  eV     2   --> G_4   L_6      
     e( 33 - 34) =     11.59026  eV     2   --> G_4   L_6      
     e( 35 - 36) =     11.90429  eV     2   --> G_5   L_4      
     e( 35 - 36) =     11.90429  eV     2   --> G_6   L_5      
     e( 37 - 38) =     14.38972  eV     2   --> G_4   L_6      

 **************************************************************************

 **************************************************************************

                    xk=(   0.00000,   0.00000,   0.26040  )

     Band symmetry, C_3v (3m)   double point group:

     e(  1 -  2) =    -14.94256  eV     2   --> G_5   L_4      
     e(  1 -  2) =    -14.94256  eV     2   --> G_6   L_5      
     e(  3 -  4) =    -14.93570  eV     2   --> G_4   L_6      
     e(  5 -  6) =    -14.89110  eV     2   --> G_5   L_4      
     e(  5 -  6) =    -14.89110  eV     2   --> G_6   L_5      
     e(  7 -  8) =    -14.88931  eV     2   --> G_4   L_6      
     e(  9 - 10) =    -12.01511  eV     2   --> G_4   L_6      
     e( 11 - 12) =    -12.00078  eV     2   --> G_5   L_4      
     e( 11 - 12) =    -12.00078  eV     2   --> G_6   L_5      
     e( 13 - 14) =    -11.99660  eV     2   --> G_4   L_6      
     e( 15 - 16) =    -11.84424  eV     2   --> G_4   L_6      
     e( 17 - 18) =    -11.84331  eV     2   --> G_5   L_4      
     e( 17 - 18) =    -11.84331  eV     2   --> G_6   L_5      
     e( 19 - 20) =    -11.83828  eV     2   --> G_4   L_6      
     e( 21 - 22) =     -3.05899  eV     2   --> G_4   L_6      
     e( 23 - 24) =      0.91902  eV     2   --> G_4   L_6      
     e( 25 - 26) =      6.75964  eV     2   --> G_4   L_6      
     e( 27 - 28) =      8.61959  eV     2   --> G_4   L_6      
     e( 29 - 30) =      8.97332  eV     2   --> G_5   L_4      
     e( 29 - 30) =      8.97332  eV     2   --> G_6   L_5      
     e( 31 - 32) =      9.65133  eV     2   --> G_4   L_6      
     e( 33 - 34) =     11.52840  eV     2   --> G_4   L_6      
     e( 35 - 36) =     11.84448  eV     2   --> G_5   L_4      
     e( 35 - 36) =     11.84448  eV     2   --> G_6   L_5      
     e( 37 - 38) =     14.41493  eV     2   --> G_4   L_6      

 **************************************************************************

 **************************************************************************

                    xk=(   0.00000,   0.00000,   0.27042  )

     Band symmetry, C_3v (3m)   double point group:

     e(  1 -  2) =    -14.94217  eV     2   --> G_5   L_4      
     e(  1 -  2) =    -14.94217  eV     2   --> G_6   L_5      
     e(  3 -  4) =    -14.93517  eV     2   --> G_4   L_6      
     e(  5 -  6) =    -14.89131  eV     2   --> G_5   L_4      
     e(  5 -  6) =    -14.89131  eV     2   --> G_6   L_5      
     e(  7 -  8) =    -14.88958  eV     2   --> G_4   L_6      
     e(  9 - 10) =    -12.01426  eV     2   --> G_4   L_6      
     e( 11 - 12) =    -11.99959  eV     2   --> G_5   L_4      
     e( 11 - 12) =    -11.99959  eV     2   --> G_6   L_5      
     e( 13 - 14) =    -11.99553  eV     2   --> G_4   L_6      
     e( 15 - 16) =    -11.84532  eV     2   --> G_4   L_6      
     e( 17 - 18) =    -11.84469  eV     2   --> G_5   L_4      
     e( 17 - 18) =    -11.84469  eV     2   --> G_6   L_5      
     e( 19 - 20) =    -11.83942  eV     2   --> G_4   L_6      
     e( 21 - 22) =     -3.03291  eV     2   --> G_4   L_6      
     e( 23 - 24) =      0.86379  eV     2   --> G_4   L_6      
     e( 25 - 26) =      6.78104  eV     2   --> G_4   L_6      
     e( 27 - 28) =      8.61428  eV     2   --> G_4   L_6      
     e( 29 - 30) =      8.98439  eV     2   --> G_5   L_4      
     e( 29 - 30) =      8.98439  eV     2   --> G_6   L_5      
     e( 31 - 32) =      9.62473  eV     2   --> G_4   L_6      
     e( 33 - 34) =     11.46684  eV     2   --> G_4   L_6      
     e( 35 - 36) =     11.78466  eV     2   --> G_5   L_4      
     e( 35 - 36) =     11.78466  eV     2   --> G_6   L_5      
     e( 37 - 38) =     14.44360  eV     2   --> G_4   L_6      

 **************************************************************************

 **************************************************************************

                    xk=(   0.00000,   0.00000,   0.28044  )

     Band symmetry, C_3v (3m)   double point group:

     e(  1 -  2) =    -14.94178  eV     2   --> G_5   L_4      
     e(  1 -  2) =    -14.94178  eV     2   --> G_6   L_5      
     e(  3 -  4) =    -14.93462  eV     2   --> G_4   L_6      
     e(  5 -  6) =    -14.89153  eV     2   --> G_5   L_4      
     e(  5 -  6) =    -14.89153  eV     2   --> G_6   L_5      
     e(  7 -  8) =    -14.88987  eV     2   --> G_4   L_6      
     e(  9 - 10) =    -12.01338  eV     2   --> G_4   L_6      
     e( 11 - 12) =    -11.99836  eV     2   --> G_5   L_4      
     e( 11 - 12) =    -11.99836  eV     2   --> G_6   L_5      
     e( 13 - 14) =    -11.99443  eV     2   --> G_4   L_6      
     e( 15 - 16) =    -11.84643  eV     2   --> G_4   L_6      
     e( 17 - 18) =    -11.84611  eV     2   --> G_5   L_4      
     e( 17 - 18) =    -11.84611  eV     2   --> G_6   L_5      
     e( 19 - 20) =    -11.84057  eV     2   --> G_4   L_6      
     e( 21 - 22) =     -3.00600  eV     2   --> G_4   L_6      
     e( 23 - 24) =      0.80782  eV     2   --> G_4   L_6      
     e( 25 - 26) =      6.80283  eV     2   --> G_4   L_6      
     e( 27 - 28) =      8.60766  eV     2   --> G_4   L_6      
     e( 29 - 30) =      8.99597  eV     2   --> G_5   L_4      
     e( 29 - 30) =      8.99597  eV     2   --> G_6   L_5      
     e( 31 - 32) =      9.59930  eV     2   --> G_4   L_6      
     e( 33 - 34) =     11.40566  eV     2   --> G_4   L_6      
     e( 35 - 36) =     11.72496  eV     2   --> G_5   L_4      
     e( 35 - 36) =     11.72496  eV     2   --> G_6   L_5      
     e( 37 - 38) =     14.47566  eV     2   --> G_4   L_6      

 **************************************************************************

 **************************************************************************

                    xk=(   0.00000,   0.00000,   0.29045  )

     Band symmetry, C_3v (3m)   double point group:

     e(  1 -  2) =    -14.94138  eV     2   --> G_5   L_4      
     e(  1 -  2) =    -14.94138  eV     2   --> G_6   L_5      
     e(  3 -  4) =    -14.93406  eV     2   --> G_4   L_6      
     e(  5 -  6) =    -14.89175  eV     2   --> G_5   L_4      
     e(  5 -  6) =    -14.89175  eV     2   --> G_6   L_5      
     e(  7 -  8) =    -14.89016  eV     2   --> G_4   L_6      
     e(  9 - 10) =    -12.01249  eV     2   --> G_4   L_6      
     e( 11 - 12) =    -11.99710  eV     2   --> G_5   L_4      
     e( 11 - 12) =    -11.99710  eV     2   --> G_6   L_5      
     e( 13 - 14) =    -11.99331  eV     2   --> G_4   L_6      
     e( 15 - 18) =    -11.84756  eV     4   --> G_4   L_6      
     e( 15 - 18) =    -11.84756  eV     4   --> G_5   L_4      
     e( 15 - 18) =    -11.84756  eV     4   --> G_6   L_5      
     e( 19 - 20) =    -11.84173  eV     2   --> G_4   L_6      
     e( 21 - 22) =     -2.97828  eV     2   --> G_4   L_6      
     e( 23 - 24) =      0.75119  eV     2   --> G_4   L_6      
     e( 25 - 26) =      6.82501  eV     2   --> G_4   L_6      
     e( 27 - 28) =      8.59962  eV     2   --> G_4   L_6      
     e( 29 - 30) =      9.00807  eV     2   --> G_5   L_4      
     e( 29 - 30) =      9.00807  eV     2   --> G_6   L_5      
     e( 31 - 32) =      9.57521  eV     2   --> G_4   L_6      
     e( 33 - 34) =     11.34495  eV     2   --> G_4   L_6      
     e( 35 - 36) =     11.66546  eV     2   --> G_5   L_4      
     e( 35 - 36) =     11.66546  eV     2   --> G_6   L_5      
     e( 37 - 38) =     14.51106  eV     2   --> G_4   L_6      

 **************************************************************************

 **************************************************************************

                    xk=(   0.00000,   0.00000,   0.30047  )

     Band symmetry, C_3v (3m)   double point group:

     e(  1 -  2) =    -14.94098  eV     2   --> G_5   L_4      
     e(  1 -  2) =    -14.94098  eV     2   --> G_6   L_5      
     e(  3 -  4) =    -14.93349  eV     2   --> G_4   L_6      
     e(  5 -  6) =    -14.89198  eV     2   --> G_5   L_4      
     e(  5 -  6) =    -14.89198  eV     2   --> G_6   L_5      
     e(  7 -  8) =    -14.89046  eV     2   --> G_4   L_6      
     e(  9 - 10) =    -12.01157  eV     2   --> G_4   L_6      
     e( 11 - 12) =    -11.99581  eV     2   --> G_5   L_4      
     e( 11 - 12) =    -11.99581  eV     2   --> G_6   L_5      
     e( 13 - 14) =    -11.99218  eV     2   --> G_4   L_6      
     e( 15 - 16) =    -11.84904  eV     2   --> G_5   L_4      
     e( 15 - 16) =    -11.84904  eV     2   --> G_6   L_5      
     e( 17 - 18) =    -11.84872  eV     2   --> G_4   L_6      
     e( 19 - 20) =    -11.84291  eV     2   --> G_4   L_6      
     e( 21 - 22) =     -2.94978  eV     2   --> G_4   L_6      
     e( 23 - 24) =      0.69401  eV     2   --> G_4   L_6      
     e( 25 - 26) =      6.84756  eV     2   --> G_4   L_6      
     e( 27 - 28) =      8.59007  eV     2   --> G_4   L_6      
     e( 29 - 30) =      9.02069  eV     2   --> G_5   L_4      
     e( 29 - 30) =      9.02069  eV     2   --> G_6   L_5      
     e( 31 - 32) =      9.55262  eV     2   --> G_4   L_6      
     e( 33 - 34) =     11.28480  eV     2   --> G_4   L_6      
     e( 35 - 36) =     11.60625  eV     2   --> G_5   L_4      
     e( 35 - 36) =     11.60625  eV     2   --> G_6   L_5      
     e( 37 - 38) =     14.54972  eV     2   --> G_4   L_6      

 **************************************************************************

 **************************************************************************

                    xk=(   0.00000,   0.00000,   0.31048  )

     Band symmetry, C_3v (3m)   double point group:

     e(  1 -  2) =    -14.94057  eV     2   --> G_5   L_4      
     e(  1 -  2) =    -14.94057  eV     2   --> G_6   L_5      
     e(  3 -  4) =    -14.93291  eV     2   --> G_4   L_6      
     e(  5 -  6) =    -14.89221  eV     2   --> G_5   L_4      
     e(  5 -  6) =    -14.89221  eV     2   --> G_6   L_5      
     e(  7 -  8) =    -14.89078  eV     2   --> G_4   L_6      
     e(  9 - 10) =    -12.01065  eV     2   --> G_4   L_6      
     e( 11 - 12) =    -11.99450  eV     2   --> G_5   L_4      
     e( 11 - 12) =    -11.99450  eV     2   --> G_6   L_5      
     e( 13 - 14) =    -11.99103  eV     2   --> G_4   L_6      
     e( 15 - 16) =    -11.85054  eV     2   --> G_5   L_4      
     e( 15 - 16) =    -11.85054  eV     2   --> G_6   L_5      
     e( 17 - 18) =    -11.84990  eV     2   --> G_4   L_6      
     e( 19 - 20) =    -11.84410  eV     2   --> G_4   L_6      
     e( 21 - 22) =     -2.92053  eV     2   --> G_4   L_6      
     e( 23 - 24) =      0.63637  eV     2   --> G_4   L_6      
     e( 25 - 26) =      6.87048  eV     2   --> G_4   L_6      
     e( 27 - 28) =      8.57894  eV     2   --> G_4   L_6      
     e( 29 - 30) =      9.03382  eV     2   --> G_5   L_4      
     e( 29 - 30) =      9.03382  eV     2   --> G_6   L_5      
     e( 31 - 32) =      9.53168  eV     2   --> G_4   L_6      
     e( 33 - 34) =     11.22528  eV     2   --> G_4   L_6      
     e( 35 - 36) =     11.54741  eV     2   --> G_5   L_4      
     e( 35 - 36) =     11.54741  eV     2   --> G_6   L_5      
     e( 37 - 38) =     14.59157  eV     2   --> G_4   L_6      

 **************************************************************************

 **************************************************************************

                    xk=(   0.00000,   0.00000,   0.32050  )

     Band symmetry, C_3v (3m)   double point group:

     e(  1 -  2) =    -14.94016  eV     2   --> G_5   L_4      
     e(  1 -  2) =    -14.94016  eV     2   --> G_6   L_5      
     e(  3 -  4) =    -14.93232  eV     2   --> G_4   L_6      
     e(  5 -  6) =    -14.89245  eV     2   --> G_5   L_4      
     e(  5 -  6) =    -14.89245  eV     2   --> G_6   L_5      
     e(  7 -  8) =    -14.89110  eV     2   --> G_4   L_6      
     e(  9 - 10) =    -12.00970  eV     2   --> G_4   L_6      
     e( 11 - 12) =    -11.99316  eV     2   --> G_5   L_4      
     e( 11 - 12) =    -11.99316  eV     2   --> G_6   L_5      
     e( 13 - 14) =    -11.98987  eV     2   --> G_4   L_6      
     e( 15 - 16) =    -11.85207  eV     2   --> G_5   L_4      
     e( 15 - 16) =    -11.85207  eV     2   --> G_6   L_5      
     e( 17 - 18) =    -11.85110  eV     2   --> G_4   L_6      
     e( 19 - 20) =    -11.84529  eV     2   --> G_4   L_6      
     e( 21 - 22) =     -2.89056  eV     2   --> G_4   L_6      
     e( 23 - 24) =      0.57838  eV     2   --> G_4   L_6      
     e( 25 - 26) =      6.89374  eV     2   --> G_4   L_6      
     e( 27 - 28) =      8.56616  eV     2   --> G_4   L_6      
     e( 29 - 30) =      9.04748  eV     2   --> G_5   L_4      
     e( 29 - 30) =      9.04748  eV     2   --> G_6   L_5      
     e( 31 - 32) =      9.51253  eV     2   --> G_4   L_6      
     e( 33 - 34) =     11.16646  eV     2   --> G_4   L_6      
     e( 35 - 36) =     11.48903  eV     2   --> G_5   L_4      
     e( 35 - 36) =     11.48903  eV     2   --> G_6   L_5      
     e( 37 - 38) =     14.63653  eV     2   --> G_4   L_6      

 **************************************************************************

 **************************************************************************

                    xk=(   0.00000,   0.00000,   0.33051  )

     Band symmetry, C_3v (3m)   double point group:

     e(  1 -  2) =    -14.93975  eV     2   --> G_5   L_4      
     e(  1 -  2) =    -14.93975  eV     2   --> G_6   L_5      
     e(  3 -  4) =    -14.93173  eV     2   --> G_4   L_6      
     e(  5 -  6) =    -14.89269  eV     2   --> G_5   L_4      
     e(  5 -  6) =    -14.89269  eV     2   --> G_6   L_5      
     e(  7 -  8) =    -14.89143  eV     2   --> G_4   L_6      
     e(  9 - 10) =    -12.00875  eV     2   --> G_4   L_6      
     e( 11 - 12) =    -11.99180  eV     2   --> G_5   L_4      
     e( 11 - 12) =    -11.99180  eV     2   --> G_6   L_5      
     e( 13 - 14) =    -11.98870  eV     2   --> G_4   L_6      
     e( 15 - 16) =    -11.85362  eV     2   --> G_5   L_4      
     e( 15 - 16) =    -11.85362  eV     2   --> G_6   L_5      
     e( 17 - 18) =    -11.85231  eV     2   --> G_4   L_6      
     e( 19 - 20) =    -11.84649  eV     2   --> G_4   L_6      
     e( 21 - 22) =     -2.85990  eV     2   --> G_4   L_6      
     e( 23 - 24) =      0.52013  eV     2   --> G_4   L_6      
     e( 25 - 26) =      6.91734  eV     2   --> G_4   L_6      
     e( 27 - 28) =      8.55170  eV     2   --> G_4   L_6      
     e( 29 - 30) =      9.06164  eV     2   --> G_5   L_4      
     e( 29 - 30) =      9.06164  eV     2   --> G_6   L_5      
     e( 31 - 32) =      9.49526  eV     2   --> G_4   L_6      
     e( 33 - 34) =     11.10841  eV     2   --> G_4   L_6      
     e( 35 - 36) =     11.43118  eV     2   --> G_5   L_4      
     e( 35 - 36) =     11.43118  eV     2   --> G_6   L_5      
     e( 37 - 38) =     14.68452  eV     2   --> G_4   L_6      

 **************************************************************************

 **************************************************************************

                    xk=(   0.00000,   0.00000,   0.34053  )

     Band symmetry, C_3v (3m)   double point group:

     e(  1 -  2) =    -14.93934  eV     2   --> G_5   L_4      
     e(  1 -  2) =    -14.93934  eV     2   --> G_6   L_5      
     e(  3 -  4) =    -14.93113  eV     2   --> G_4   L_6      
     e(  5 -  6) =    -14.89293  eV     2   --> G_5   L_4      
     e(  5 -  6) =    -14.89293  eV     2   --> G_6   L_5      
     e(  7 -  8) =    -14.89176  eV     2   --> G_4   L_6      
     e(  9 - 10) =    -12.00779  eV     2   --> G_4   L_6      
     e( 11 - 12) =    -11.99042  eV     2   --> G_5   L_4      
     e( 11 - 12) =    -11.99042  eV     2   --> G_6   L_5      
     e( 13 - 14) =    -11.98752  eV     2   --> G_4   L_6      
     e( 15 - 16) =    -11.85518  eV     2   --> G_5   L_4      
     e( 15 - 16) =    -11.85518  eV     2   --> G_6   L_5      
     e( 17 - 18) =    -11.85354  eV     2   --> G_4   L_6      
     e( 19 - 20) =    -11.84769  eV     2   --> G_4   L_6      
     e( 21 - 22) =     -2.82858  eV     2   --> G_4   L_6      
     e( 23 - 24) =      0.46172  eV     2   --> G_4   L_6      
     e( 25 - 26) =      6.94128  eV     2   --> G_4   L_6      
     e( 27 - 28) =      8.53553  eV     2   --> G_4   L_6      
     e( 29 - 30) =      9.07632  eV     2   --> G_5   L_4      
     e( 29 - 30) =      9.07632  eV     2   --> G_6   L_5      
     e( 31 - 32) =      9.47996  eV     2   --> G_4   L_6      
     e( 33 - 34) =     11.05118  eV     2   --> G_4   L_6      
     e( 35 - 36) =     11.37394  eV     2   --> G_5   L_4      
     e( 35 - 36) =     11.37394  eV     2   --> G_6   L_5      
     e( 37 - 38) =     14.73546  eV     2   --> G_4   L_6      

 **************************************************************************

 **************************************************************************

                    xk=(   0.00000,   0.00000,   0.35054  )

     Band symmetry, C_3v (3m)   double point group:

     e(  1 -  2) =    -14.93893  eV     2   --> G_5   L_4      
     e(  1 -  2) =    -14.93893  eV     2   --> G_6   L_5      
     e(  3 -  4) =    -14.93052  eV     2   --> G_4   L_6      
     e(  5 -  6) =    -14.89317  eV     2   --> G_5   L_4      
     e(  5 -  6) =    -14.89317  eV     2   --> G_6   L_5      
     e(  7 -  8) =    -14.89211  eV     2   --> G_4   L_6      
     e(  9 - 10) =    -12.00682  eV     2   --> G_4   L_6      
     e( 11 - 12) =    -11.98902  eV     2   --> G_5   L_4      
     e( 11 - 12) =    -11.98902  eV     2   --> G_6   L_5      
     e( 13 - 14) =    -11.98634  eV     2   --> G_4   L_6      
     e( 15 - 16) =    -11.85676  eV     2   --> G_5   L_4      
     e( 15 - 16) =    -11.85676  eV     2   --> G_6   L_5      
     e( 17 - 18) =    -11.85477  eV     2   --> G_4   L_6      
     e( 19 - 20) =    -11.84889  eV     2   --> G_4   L_6      
     e( 21 - 22) =     -2.79666  eV     2   --> G_4   L_6      
     e( 23 - 24) =      0.40327  eV     2   --> G_4   L_6      
     e( 25 - 26) =      6.96554  eV     2   --> G_4   L_6      
     e( 27 - 28) =      8.51766  eV     2   --> G_4   L_6      
     e( 29 - 30) =      9.09149  eV     2   --> G_5   L_4      
     e( 29 - 30) =      9.09149  eV     2   --> G_6   L_5      
     e( 31 - 32) =      9.46668  eV     2   --> G_4   L_6      
     e( 33 - 34) =     10.99483  eV     2   --> G_4   L_6      
     e( 35 - 36) =     11.31737  eV     2   --> G_5   L_4      
     e( 35 - 36) =     11.31737  eV     2   --> G_6   L_5      
     e( 37 - 38) =     14.78925  eV     2   --> G_4   L_6      

 **************************************************************************

 **************************************************************************

                    xk=(   0.00000,   0.00000,   0.36056  )

     Band symmetry, C_3v (3m)   double point group:

     e(  1 -  2) =    -14.93851  eV     2   --> G_5   L_4      
     e(  1 -  2) =    -14.93851  eV     2   --> G_6   L_5      
     e(  3 -  4) =    -14.92992  eV     2   --> G_4   L_6      
     e(  5 -  6) =    -14.89342  eV     2   --> G_5   L_4      
     e(  5 -  6) =    -14.89342  eV     2   --> G_6   L_5      
     e(  7 -  8) =    -14.89246  eV     2   --> G_4   L_6      
     e(  9 - 10) =    -12.00584  eV     2   --> G_4   L_6      
     e( 11 - 12) =    -11.98761  eV     2   --> G_5   L_4      
     e( 11 - 12) =    -11.98761  eV     2   --> G_6   L_5      
     e( 13 - 14) =    -11.98516  eV     2   --> G_4   L_6      
     e( 15 - 16) =    -11.85836  eV     2   --> G_5   L_4      
     e( 15 - 16) =    -11.85836  eV     2   --> G_6   L_5      
     e( 17 - 18) =    -11.85600  eV     2   --> G_4   L_6      
     e( 19 - 20) =    -11.85009  eV     2   --> G_4   L_6      
     e( 21 - 22) =     -2.76417  eV     2   --> G_4   L_6      
     e( 23 - 24) =      0.34486  eV     2   --> G_4   L_6      
     e( 25 - 26) =      6.99011  eV     2   --> G_4   L_6      
     e( 27 - 28) =      8.49814  eV     2   --> G_4   L_6      
     e( 29 - 30) =      9.10715  eV     2   --> G_5   L_4      
     e( 29 - 30) =      9.10715  eV     2   --> G_6   L_5      
     e( 31 - 32) =      9.45545  eV     2   --> G_4   L_6      
     e( 33 - 34) =     10.93942  eV     2   --> G_4   L_6      
     e( 35 - 36) =     11.26155  eV     2   --> G_5   L_4      
     e( 35 - 36) =     11.26155  eV     2   --> G_6   L_5      
     e( 37 - 38) =     14.84578  eV     2   --> G_4   L_6      

 **************************************************************************

 **************************************************************************

                    xk=(   0.00000,   0.00000,   0.37058  )

     Band symmetry, C_3v (3m)   double point group:

     e(  1 -  2) =    -14.93810  eV     2   --> G_5   L_4      
     e(  1 -  2) =    -14.93810  eV     2   --> G_6   L_5      
     e(  3 -  4) =    -14.92931  eV     2   --> G_4   L_6      
     e(  5 -  6) =    -14.89366  eV     2   --> G_5   L_4      
     e(  5 -  6) =    -14.89366  eV     2   --> G_6   L_5      
     e(  7 -  8) =    -14.89282  eV     2   --> G_4   L_6      
     e(  9 - 10) =    -12.00487  eV     2   --> G_4   L_6      
     e( 11 - 12) =    -11.98619  eV     2   --> G_5   L_4      
     e( 11 - 12) =    -11.98619  eV     2   --> G_6   L_5      
     e( 13 - 14) =    -11.98398  eV     2   --> G_4   L_6      
     e( 15 - 16) =    -11.85996  eV     2   --> G_5   L_4      
     e( 15 - 16) =    -11.85996  eV     2   --> G_6   L_5      
     e( 17 - 18) =    -11.85724  eV     2   --> G_4   L_6      
     e( 19 - 20) =    -11.85129  eV     2   --> G_4   L_6      
     e( 21 - 22) =     -2.73118  eV     2   --> G_4   L_6      
     e( 23 - 24) =      0.28660  eV     2   --> G_4   L_6      
     e( 25 - 26) =      7.01499  eV     2   --> G_4   L_6      
     e( 27 - 28) =      8.47703  eV     2   --> G_4   L_6      
     e( 29 - 30) =      9.12327  eV     2   --> G_5   L_4      
     e( 29 - 30) =      9.12327  eV     2   --> G_6   L_5      
     e( 31 - 32) =      9.44625  eV     2   --> G_4   L_6      
     e( 33 - 34) =     10.88501  eV     2   --> G_4   L_6      
     e( 35 - 36) =     11.20655  eV     2   --> G_5   L_4      
     e( 35 - 36) =     11.20655  eV     2   --> G_6   L_5      
     e( 37 - 38) =     14.90496  eV     2   --> G_4   L_6      

 **************************************************************************

 **************************************************************************

                    xk=(   0.00000,   0.00000,   0.38059  )

     Band symmetry, C_3v (3m)   double point group:

     e(  1 -  2) =    -14.93770  eV     2   --> G_5   L_4      
     e(  1 -  2) =    -14.93770  eV     2   --> G_6   L_5      
     e(  3 -  4) =    -14.92870  eV     2   --> G_4   L_6      
     e(  5 -  6) =    -14.89391  eV     2   --> G_5   L_4      
     e(  5 -  6) =    -14.89391  eV     2   --> G_6   L_5      
     e(  7 -  8) =    -14.89318  eV     2   --> G_4   L_6      
     e(  9 - 10) =    -12.00389  eV     2   --> G_4   L_6      
     e( 11 - 12) =    -11.98476  eV     2   --> G_5   L_4      
     e( 11 - 12) =    -11.98476  eV     2   --> G_6   L_5      
     e( 13 - 14) =    -11.98280  eV     2   --> G_4   L_6      
     e( 15 - 16) =    -11.86156  eV     2   --> G_5   L_4      
     e( 15 - 16) =    -11.86156  eV     2   --> G_6   L_5      
     e( 17 - 18) =    -11.85847  eV     2   --> G_4   L_6      
     e( 19 - 20) =    -11.85247  eV     2   --> G_4   L_6      
     e( 21 - 22) =     -2.69772  eV     2   --> G_4   L_6      
     e( 23 - 24) =      0.22861  eV     2   --> G_4   L_6      
     e( 25 - 26) =      7.04016  eV     2   --> G_4   L_6      
     e( 27 - 28) =      8.45440  eV     2   --> G_4   L_6      
     e( 29 - 30) =      9.13985  eV     2   --> G_5   L_4      
     e( 29 - 30) =      9.13985  eV     2   --> G_6   L_5      
     e( 31 - 32) =      9.43907  eV     2   --> G_4   L_6      
     e( 33 - 34) =     10.83164  eV     2   --> G_4   L_6      
     e( 35 - 36) =     11.15243  eV     2   --> G_5   L_4      
     e( 35 - 36) =     11.15243  eV     2   --> G_6   L_5      
     e( 37 - 38) =     14.96667  eV     2   --> G_4   L_6      

 **************************************************************************

 **************************************************************************

                    xk=(   0.00000,   0.00000,   0.39061  )

     Band symmetry, C_3v (3m)   double point group:

     e(  1 -  2) =    -14.93729  eV     2   --> G_5   L_4      
     e(  1 -  2) =    -14.93729  eV     2   --> G_6   L_5      
     e(  3 -  4) =    -14.92809  eV     2   --> G_4   L_6      
     e(  5 -  6) =    -14.89415  eV     2   --> G_5   L_4      
     e(  5 -  6) =    -14.89415  eV     2   --> G_6   L_5      
     e(  7 -  8) =    -14.89355  eV     2   --> G_4   L_6      
     e(  9 - 10) =    -12.00292  eV     2   --> G_4   L_6      
     e( 11 - 12) =    -11.98332  eV     2   --> G_5   L_4      
     e( 11 - 12) =    -11.98332  eV     2   --> G_6   L_5      
     e( 13 - 14) =    -11.98164  eV     2   --> G_4   L_6      
[...]
     e( 13 - 14) =    -12.00851  eV     2   --> G_3            
     e( 13 - 14) =    -12.00851  eV     2   --> G_4            
     e( 15 - 16) =    -11.83315  eV     2   --> G_3            
     e( 15 - 16) =    -11.83315  eV     2   --> G_4            
     e( 17 - 18) =    -11.82482  eV     2   --> G_3            
     e( 17 - 18) =    -11.82482  eV     2   --> G_4            
     e( 19 - 20) =    -11.82177  eV     2   --> G_3            
     e( 19 - 20) =    -11.82177  eV     2   --> G_4            
     e( 21 - 22) =     -3.37435  eV     2   --> G_3            
     e( 21 - 22) =     -3.37435  eV     2   --> G_4            
     e( 23 - 24) =      1.69312  eV     2   --> G_3            
     e( 23 - 24) =      1.69312  eV     2   --> G_4            
     e( 25 - 26) =      6.45200  eV     2   --> G_3            
     e( 25 - 26) =      6.45200  eV     2   --> G_4            
     e( 27 - 28) =      8.58229  eV     2   --> G_3            
     e( 27 - 28) =      8.58229  eV     2   --> G_4            
     e( 29 - 30) =      8.84912  eV     2   --> G_3            
     e( 29 - 30) =      8.84912  eV     2   --> G_4            
     e( 31 - 32) =     10.14109  eV     2   --> G_3            
     e( 31 - 32) =     10.14109  eV     2   --> G_4            
     e( 33 - 34) =     12.51625  eV     2   --> G_3            
     e( 33 - 34) =     12.51625  eV     2   --> G_4            
     e( 35 - 36) =     12.86247  eV     2   --> G_3            
     e( 35 - 36) =     12.86247  eV     2   --> G_4            
     e( 37 - 38) =     14.64755  eV     2   --> G_3            
     e( 37 - 38) =     14.64755  eV     2   --> G_4            

 **************************************************************************

 **************************************************************************

                    xk=(   0.04337,  -0.02504,   0.03339  )

     Band symmetry, C_s (m)     double point group:

     e(  1 -  2) =    -14.94776  eV     2   --> G_3            
     e(  1 -  2) =    -14.94776  eV     2   --> G_4            
     e(  3 -  4) =    -14.94285  eV     2   --> G_3            
     e(  3 -  4) =    -14.94285  eV     2   --> G_4            
     e(  5 -  6) =    -14.88837  eV     2   --> G_3            
     e(  5 -  6) =    -14.88837  eV     2   --> G_4            
     e(  7 -  8) =    -14.88590  eV     2   --> G_3            
     e(  7 -  8) =    -14.88590  eV     2   --> G_4            
     e(  9 - 10) =    -12.02613  eV     2   --> G_3            
     e(  9 - 10) =    -12.02613  eV     2   --> G_4            
     e( 11 - 12) =    -12.01760  eV     2   --> G_3            
     e( 11 - 12) =    -12.01760  eV     2   --> G_4            
     e( 13 - 14) =    -12.00941  eV     2   --> G_3            
     e( 13 - 14) =    -12.00941  eV     2   --> G_4            
     e( 15 - 16) =    -11.83220  eV     2   --> G_3            
     e( 15 - 16) =    -11.83220  eV     2   --> G_4            
     e( 17 - 18) =    -11.82433  eV     2   --> G_3            
     e( 17 - 18) =    -11.82433  eV     2   --> G_4            
     e( 19 - 20) =    -11.82188  eV     2   --> G_3            
     e( 19 - 20) =    -11.82188  eV     2   --> G_4            
     e( 21 - 22) =     -3.38299  eV     2   --> G_3            
     e( 21 - 22) =     -3.38299  eV     2   --> G_4            
     e( 23 - 24) =      1.71305  eV     2   --> G_3            
     e( 23 - 24) =      1.71305  eV     2   --> G_4            
     e( 25 - 26) =      6.44763  eV     2   --> G_3            
     e( 25 - 26) =      6.44763  eV     2   --> G_4            
     e( 27 - 28) =      8.58873  eV     2   --> G_3            
     e( 27 - 28) =      8.58873  eV     2   --> G_4            
     e( 29 - 30) =      8.84328  eV     2   --> G_3            
     e( 29 - 30) =      8.84328  eV     2   --> G_4            
     e( 31 - 32) =     10.15966  eV     2   --> G_3            
     e( 31 - 32) =     10.15966  eV     2   --> G_4            
     e( 33 - 34) =     12.58013  eV     2   --> G_3            
     e( 33 - 34) =     12.58013  eV     2   --> G_4            
     e( 35 - 36) =     12.86391  eV     2   --> G_3            
     e( 35 - 36) =     12.86391  eV     2   --> G_4            
     e( 37 - 38) =     14.67792  eV     2   --> G_3            
     e( 37 - 38) =     14.67792  eV     2   --> G_4            

 **************************************************************************

 **************************************************************************

                    xk=(   0.03469,  -0.02003,   0.02671  )

     Band symmetry, C_s (m)     double point group:

     e(  1 -  2) =    -14.94787  eV     2   --> G_3            
     e(  1 -  2) =    -14.94787  eV     2   --> G_4            
     e(  3 -  4) =    -14.94301  eV     2   --> G_3            
     e(  3 -  4) =    -14.94301  eV     2   --> G_4            
     e(  5 -  6) =    -14.88830  eV     2   --> G_3            
     e(  5 -  6) =    -14.88830  eV     2   --> G_4            
     e(  7 -  8) =    -14.88587  eV     2   --> G_3            
     e(  7 -  8) =    -14.88587  eV     2   --> G_4            
     e(  9 - 10) =    -12.02636  eV     2   --> G_3            
     e(  9 - 10) =    -12.02636  eV     2   --> G_4            
     e( 11 - 12) =    -12.01751  eV     2   --> G_3            
     e( 11 - 12) =    -12.01751  eV     2   --> G_4            
     e( 13 - 14) =    -12.01021  eV     2   --> G_3            
     e( 13 - 14) =    -12.01021  eV     2   --> G_4            
     e( 15 - 16) =    -11.83138  eV     2   --> G_3            
     e( 15 - 16) =    -11.83138  eV     2   --> G_4            
     e( 17 - 18) =    -11.82407  eV     2   --> G_3            
     e( 17 - 18) =    -11.82407  eV     2   --> G_4            
     e( 19 - 20) =    -11.82188  eV     2   --> G_3            
     e( 19 - 20) =    -11.82188  eV     2   --> G_4            
     e( 21 - 22) =     -3.39007  eV     2   --> G_3            
     e( 21 - 22) =     -3.39007  eV     2   --> G_4            
     e( 23 - 24) =      1.72962  eV     2   --> G_3            
     e( 23 - 24) =      1.72962  eV     2   --> G_4            
     e( 25 - 26) =      6.44351  eV     2   --> G_3            
     e( 25 - 26) =      6.44351  eV     2   --> G_4            
     e( 27 - 28) =      8.59189  eV     2   --> G_3            
     e( 27 - 28) =      8.59189  eV     2   --> G_4            
     e( 29 - 30) =      8.84099  eV     2   --> G_3            
     e( 29 - 30) =      8.84099  eV     2   --> G_4            
     e( 31 - 32) =     10.17422  eV     2   --> G_3            
     e( 31 - 32) =     10.17422  eV     2   --> G_4            
     e( 33 - 34) =     12.63034  eV     2   --> G_3            
     e( 33 - 34) =     12.63034  eV     2   --> G_4            
     e( 35 - 36) =     12.87192  eV     2   --> G_3            
     e( 35 - 36) =     12.87192  eV     2   --> G_4            
     e( 37 - 38) =     14.69875  eV     2   --> G_3            
     e( 37 - 38) =     14.69875  eV     2   --> G_4            

 **************************************************************************

 **************************************************************************

                    xk=(   0.02602,  -0.01502,   0.02003  )

     Band symmetry, C_s (m)     double point group:

     e(  1 -  2) =    -14.94796  eV     2   --> G_3            
     e(  1 -  2) =    -14.94796  eV     2   --> G_4            
     e(  3 -  4) =    -14.94312  eV     2   --> G_3            
     e(  3 -  4) =    -14.94312  eV     2   --> G_4            
     e(  5 -  6) =    -14.88825  eV     2   --> G_3            
     e(  5 -  6) =    -14.88825  eV     2   --> G_4            
     e(  7 -  8) =    -14.88584  eV     2   --> G_3            
     e(  7 -  8) =    -14.88584  eV     2   --> G_4            
     e(  9 - 10) =    -12.02656  eV     2   --> G_3            
     e(  9 - 10) =    -12.02656  eV     2   --> G_4            
     e( 11 - 12) =    -12.01737  eV     2   --> G_3            
     e( 11 - 12) =    -12.01737  eV     2   --> G_4            
     e( 13 - 14) =    -12.01088  eV     2   --> G_3            
     e( 13 - 14) =    -12.01088  eV     2   --> G_4            
     e( 15 - 16) =    -11.83071  eV     2   --> G_3            
     e( 15 - 16) =    -11.83071  eV     2   --> G_4            
     e( 17 - 18) =    -11.82401  eV     2   --> G_3            
     e( 17 - 18) =    -11.82401  eV     2   --> G_4            
     e( 19 - 20) =    -11.82176  eV     2   --> G_3            
     e( 19 - 20) =    -11.82176  eV     2   --> G_4            
     e( 21 - 22) =     -3.39557  eV     2   --> G_3            
     e( 21 - 22) =     -3.39557  eV     2   --> G_4            
     e( 23 - 24) =      1.74267  eV     2   --> G_3            
     e( 23 - 24) =      1.74267  eV     2   --> G_4            
     e( 25 - 26) =      6.43995  eV     2   --> G_3            
     e( 25 - 26) =      6.43995  eV     2   --> G_4            
     e( 27 - 28) =      8.59296  eV     2   --> G_3            
     e( 27 - 28) =      8.59296  eV     2   --> G_4            
     e( 29 - 30) =      8.84090  eV     2   --> G_3            
     e( 29 - 30) =      8.84090  eV     2   --> G_4            
     e( 31 - 32) =     10.18511  eV     2   --> G_3            
     e( 31 - 32) =     10.18511  eV     2   --> G_4            
     e( 33 - 34) =     12.66494  eV     2   --> G_3            
     e( 33 - 34) =     12.66494  eV     2   --> G_4            
     e( 35 - 36) =     12.88586  eV     2   --> G_3            
     e( 35 - 36) =     12.88586  eV     2   --> G_4            
     e( 37 - 38) =     14.71496  eV     2   --> G_3            
     e( 37 - 38) =     14.71496  eV     2   --> G_4            

 **************************************************************************

 **************************************************************************

                    xk=(   0.01735,  -0.01002,   0.01335  )

     Band symmetry, C_s (m)     double point group:

     e(  1 -  2) =    -14.94803  eV     2   --> G_3            
     e(  1 -  2) =    -14.94803  eV     2   --> G_4            
     e(  3 -  4) =    -14.94320  eV     2   --> G_3            
     e(  3 -  4) =    -14.94320  eV     2   --> G_4            
     e(  5 -  6) =    -14.88822  eV     2   --> G_3            
     e(  5 -  6) =    -14.88822  eV     2   --> G_4            
     e(  7 -  8) =    -14.88581  eV     2   --> G_3            
     e(  7 -  8) =    -14.88581  eV     2   --> G_4            
     e(  9 - 10) =    -12.02671  eV     2   --> G_3            
     e(  9 - 10) =    -12.02671  eV     2   --> G_4            
     e( 11 - 12) =    -12.01722  eV     2   --> G_3            
     e( 11 - 12) =    -12.01722  eV     2   --> G_4            
     e( 13 - 14) =    -12.01140  eV     2   --> G_3            
     e( 13 - 14) =    -12.01140  eV     2   --> G_4            
     e( 15 - 16) =    -11.83019  eV     2   --> G_3            
     e( 15 - 16) =    -11.83019  eV     2   --> G_4            
     e( 17 - 18) =    -11.82407  eV     2   --> G_3            
     e( 17 - 18) =    -11.82407  eV     2   --> G_4            
     e( 19 - 20) =    -11.82161  eV     2   --> G_3            
     e( 19 - 20) =    -11.82161  eV     2   --> G_4            
     e( 21 - 22) =     -3.39951  eV     2   --> G_3            
     e( 21 - 22) =     -3.39951  eV     2   --> G_4            
     e( 23 - 24) =      1.75208  eV     2   --> G_3            
     e( 23 - 24) =      1.75208  eV     2   --> G_4            
     e( 25 - 26) =      6.43721  eV     2   --> G_3            
     e( 25 - 26) =      6.43721  eV     2   --> G_4            
     e( 27 - 28) =      8.59295  eV     2   --> G_3            
     e( 27 - 28) =      8.59295  eV     2   --> G_4            
     e( 29 - 30) =      8.84175  eV     2   --> G_3            
     e( 29 - 30) =      8.84175  eV     2   --> G_4            
     e( 31 - 32) =     10.19266  eV     2   --> G_3            
     e( 31 - 32) =     10.19266  eV     2   --> G_4            
     e( 33 - 34) =     12.68549  eV     2   --> G_3            
     e( 33 - 34) =     12.68549  eV     2   --> G_4            
     e( 35 - 36) =     12.90185  eV     2   --> G_3            
     e( 35 - 36) =     12.90185  eV     2   --> G_4            
     e( 37 - 38) =     14.72848  eV     2   --> G_3            
     e( 37 - 38) =     14.72848  eV     2   --> G_4            

 **************************************************************************

 **************************************************************************

                    xk=(   0.00867,  -0.00501,   0.00668  )

     Band symmetry, C_s (m)     double point group:

     e(  1 -  2) =    -14.94807  eV     2   --> G_3            
     e(  1 -  2) =    -14.94807  eV     2   --> G_4            
     e(  3 -  4) =    -14.94324  eV     2   --> G_3            
     e(  3 -  4) =    -14.94324  eV     2   --> G_4            
     e(  5 -  6) =    -14.88821  eV     2   --> G_3            
     e(  5 -  6) =    -14.88821  eV     2   --> G_4            
     e(  7 -  8) =    -14.88579  eV     2   --> G_3            
     e(  7 -  8) =    -14.88579  eV     2   --> G_4            
     e(  9 - 10) =    -12.02681  eV     2   --> G_3            
     e(  9 - 10) =    -12.02681  eV     2   --> G_4            
     e( 11 - 12) =    -12.01711  eV     2   --> G_3            
     e( 11 - 12) =    -12.01711  eV     2   --> G_4            
     e( 13 - 14) =    -12.01173  eV     2   --> G_3            
     e( 13 - 14) =    -12.01173  eV     2   --> G_4            
     e( 15 - 16) =    -11.82987  eV     2   --> G_3            
     e( 15 - 16) =    -11.82987  eV     2   --> G_4            
     e( 17 - 18) =    -11.82414  eV     2   --> G_3            
     e( 17 - 18) =    -11.82414  eV     2   --> G_4            
     e( 19 - 20) =    -11.82149  eV     2   --> G_3            
     e( 19 - 20) =    -11.82149  eV     2   --> G_4            
     e( 21 - 22) =     -3.40188  eV     2   --> G_3            
     e( 21 - 22) =     -3.40188  eV     2   --> G_4            
     e( 23 - 24) =      1.75776  eV     2   --> G_3            
     e( 23 - 24) =      1.75776  eV     2   --> G_4            
     e( 25 - 26) =      6.43549  eV     2   --> G_3            
     e( 25 - 26) =      6.43549  eV     2   --> G_4            
     e( 27 - 28) =      8.59265  eV     2   --> G_3            
     e( 27 - 28) =      8.59265  eV     2   --> G_4            
     e( 29 - 30) =      8.84263  eV     2   --> G_3            
     e( 29 - 30) =      8.84263  eV     2   --> G_4            
     e( 31 - 32) =     10.19710  eV     2   --> G_3            
     e( 31 - 32) =     10.19710  eV     2   --> G_4            
     e( 33 - 34) =     12.69574  eV     2   --> G_3            
     e( 33 - 34) =     12.69574  eV     2   --> G_4            
     e( 35 - 36) =     12.91432  eV     2   --> G_3            
     e( 35 - 36) =     12.91432  eV     2   --> G_4            
     e( 37 - 38) =     14.73816  eV     2   --> G_3            
     e( 37 - 38) =     14.73816  eV     2   --> G_4            

 **************************************************************************

 **************************************************************************

                    xk=(   0.00000,   0.00000,   0.00000  )

     double point group D_3d (-3m) 
     there are 12 classes and  6 irreducible representations
     the character table:

       E     -E    2C3   -2C3  3C2'  -3C2' i     -i    2S6   -2S6  3s_v  -3s_v
                                                                              
G_4+   2.00 -2.00  1.00 -1.00  0.00  0.00  2.00 -2.00  1.00 -1.00  0.00  0.00
G_5+   1.00 -1.00 -1.00  1.00  0.00  0.00  1.00 -1.00 -1.00  1.00  0.00  0.00
G_6+   1.00 -1.00 -1.00  1.00  0.00  0.00  1.00 -1.00 -1.00  1.00  0.00  0.00
G_4-   2.00 -2.00  1.00 -1.00  0.00  0.00 -2.00  2.00 -1.00  1.00  0.00  0.00
G_5-   1.00 -1.00 -1.00  1.00  0.00  0.00 -1.00  1.00  1.00 -1.00  0.00  0.00
G_6-   1.00 -1.00 -1.00  1.00  0.00  0.00 -1.00  1.00  1.00 -1.00  0.00  0.00

     imaginary part

       E     -E    2C3   -2C3  3C2'  -3C2' i     -i    2S6   -2S6  3s_v  -3s_v
                                                                              
G_4+   0.00  0.00  0.00  0.00  0.00  0.00  0.00  0.00  0.00  0.00  0.00  0.00
G_5+   0.00  0.00  0.00  0.00  1.00 -1.00  0.00  0.00  0.00  0.00  1.00 -1.00
G_6+   0.00  0.00  0.00  0.00 -1.00  1.00  0.00  0.00  0.00  0.00 -1.00  1.00
G_4-   0.00  0.00  0.00  0.00  0.00  0.00  0.00  0.00  0.00  0.00  0.00  0.00
G_5-   0.00  0.00  0.00  0.00  1.00 -1.00  0.00  0.00  0.00  0.00 -1.00  1.00
G_6-   0.00  0.00  0.00  0.00 -1.00  1.00  0.00  0.00  0.00  0.00  1.00 -1.00

     the symmetry operations in each class and the name of the first element:

     E             1
                                                                 
     -E           -1
                                                                 
     2C3           3    4
                                                                 
     -2C3         -3   -4
                                                                 
     3C2'          2   -5   -6
                                                                 
     3C2'          5    6   -2
                                                                 
     i             7
                                                                 
     -i           -7
                                                                 
     2S6           9   10
                                                                 
     -2S6         -9  -10
                                                                 
     3s_v          8  -11  -12
                                                                 
     3s_v         11   12   -8
                                                                 

     Band symmetry, D_3d (-3m)  double point group:

     e(  1 -  2) =    -14.94808  eV     2   --> G_5+  L_4+     
     e(  1 -  2) =    -14.94808  eV     2   --> G_6+  L_5+     
     e(  3 -  4) =    -14.94325  eV     2   --> G_4+  L_6+     
     e(  5 -  6) =    -14.88820  eV     2   --> G_5-  L_4-     
     e(  5 -  6) =    -14.88820  eV     2   --> G_6-  L_5-     
     e(  7 -  8) =    -14.88579  eV     2   --> G_4-  L_6-     
     e(  9 - 10) =    -12.02684  eV     2   --> G_4+  L_6+     
     e( 11 - 12) =    -12.01707  eV     2   --> G_5+  L_4+     
     e( 11 - 12) =    -12.01707  eV     2   --> G_6+  L_5+     
     e( 13 - 14) =    -12.01185  eV     2   --> G_4-  L_6-     
     e( 15 - 16) =    -11.82976  eV     2   --> G_4+  L_6+     
     e( 17 - 18) =    -11.82417  eV     2   --> G_5-  L_4-     
     e( 17 - 18) =    -11.82417  eV     2   --> G_6-  L_5-     
     e( 19 - 20) =    -11.82145  eV     2   --> G_4-  L_6-     
     e( 21 - 22) =     -3.40266  eV     2   --> G_4+  L_6+     
     e( 23 - 24) =      1.75966  eV     2   --> G_4-  L_6-     
     e( 25 - 26) =      6.43490  eV     2   --> G_4+  L_6+     
     e( 27 - 28) =      8.59250  eV     2   --> G_4+  L_6+     
     e( 29 - 30) =      8.84299  eV     2   --> G_5+  L_4+     
     e( 29 - 30) =      8.84299  eV     2   --> G_6+  L_5+     
     e( 31 - 32) =     10.19856  eV     2   --> G_4-  L_6-     
     e( 33 - 34) =     12.69879  eV     2   --> G_4-  L_6-     
     e( 35 - 36) =     12.91898  eV     2   --> G_5-  L_4-     
     e( 35 - 36) =     12.91898  eV     2   --> G_6-  L_5-     
     e( 37 - 38) =     14.74175  eV     2   --> G_4-  L_6-     

 **************************************************************************
 
     BANDS        :  6m28.20s CPU     6m34.66s WALL

 
   This run was terminated on:  17:37:24  10Apr2020            

=------------------------------------------------------------------------------=
   JOB DONE.
=------------------------------------------------------------------------------=
