mpijob CMD    : mpirun -f /tmp/mpiexec.params.k050801.22002
mpijob PARAMS : -d
        /home/k0508/k050801/research/dft/qeirreps/v1/qeirreps/reference/Bi_soc
        r1i0n1 24 omplace -nt 1
        "/home/k0508/k050801/research/dft/qe-6.2/bin/pw.x"

SGI MPT Placement option
--------------------------
omplace -nt 1

Node   MPI
------------
r1i0n1 24


     Program PWSCF v.6.2 (svn rev. 13949:13950) starts on 10Apr2020 at 17:38: 5 

     This program is part of the open-source Quantum ESPRESSO suite
     for quantum simulation of materials; please cite
         "P. Giannozzi et al., J. Phys.:Condens. Matter 21 395502 (2009);
         "P. Giannozzi et al., J. Phys.:Condens. Matter 29 465901 (2017);
          URL http://www.quantum-espresso.org", 
     in publications or presentations arising from this work. More details at
     http://www.quantum-espresso.org/quote

     Parallel version (MPI), running on    24 processors

     MPI processes distributed on     1 nodes
     R & G space division:  proc/nbgrp/npool/nimage =      24
     Waiting for input...
     Reading input from standard input

     Current dimensions of program PWSCF are:
     Max number of different atomic species (ntypx) = 10
     Max number of k-points (npk) =  40000
     Max angular momentum in pseudopotentials (lmaxx) =  3

     Atomic positions and unit cell read from directory:
     ./work/rep/Bi.save/
 

     Subspace diagonalization in iterative solution of the eigenvalue problem:
     a serial algorithm will be used

 
     Parallelization info
     --------------------
     sticks:   dense  smooth     PW     G-vecs:    dense   smooth      PW
     Min          91      91     25                 2787     2787     402
     Max          92      92     26                 2793     2793     405
     Sum        2197    2197    609                66925    66925    9691
 


     bravais-lattice index     =            0
     lattice parameter (alat)  =       9.0662  a.u.
     unit-cell volume          =     495.7043 (a.u.)^3
     number of atoms/cell      =            2
     number of atomic types    =            1
     number of electrons       =        30.00
     number of Kohn-Sham states=           38
     kinetic-energy cutoff     =     100.0000  Ry
     charge density cutoff     =     400.0000  Ry
     Exchange-correlation      = PBE ( 1  4  3  4 0 0)
     Non magnetic calculation with spin-orbit


     celldm(1)=   9.066241  celldm(2)=   0.000000  celldm(3)=   0.000000
     celldm(4)=   0.000000  celldm(5)=   0.000000  celldm(6)=   0.000000

     crystal axes: (cart. coord. in units of alat)
               a(1) = (   0.480401   0.277359   0.832038 )  
               a(2) = (  -0.480401   0.277359   0.832038 )  
               a(3) = (   0.000000  -0.554719   0.832038 )  

     reciprocal axes: (cart. coord. in units 2 pi/alat)
               b(1) = (  1.040798  0.600905  0.400623 )  
               b(2) = ( -1.040798  0.600905  0.400623 )  
               b(3) = (  0.000000 -1.201810  0.400623 )  


     PseudoPot. # 1 for Bi read from file:
     ../../pseudo/soc/Bi.upf
     MD5 check sum: 260977096fd1df4b879f04c556a28fcb
     Pseudo is Norm-conserving + core correction, Zval = 15.0
     Generated using ONCVPSP code by D. R. Hamann
     Using radial grid of 1562 points, 10 beta functions with: 
                l(1) =   0
                l(2) =   0
                l(3) =   1
                l(4) =   1
                l(5) =   1
                l(6) =   1
                l(7) =   2
                l(8) =   2
                l(9) =   2
               l(10) =   2

     atomic species   valence    mass     pseudopotential
        Bi            15.00   208.98040     Bi( 1.00)

     12 Sym. Ops., with inversion, found



   Cartesian axes

     site n.     atom                  positions (alat units)
         1           Bi  tau(   1) = (   0.4804007   0.2773595   0.2404589  )
         2           Bi  tau(   2) = (   0.0000000   0.0000000   0.5915789  )

     number of k points=     8  Methfessel-Paxton smearing, width (Ry)=  0.0100
                       cart. coord. in units 2pi/alat
        k(    1) = (   0.0000000   0.0000000   0.0000000), wk =   0.1250000
        k(    2) = (   0.5203989   0.3004525   0.2003114), wk =   0.1250000
        k(    3) = (  -0.5203989   0.3004525   0.2003114), wk =   0.1250000
        k(    4) = (   0.0000000  -0.6009049   0.2003114), wk =   0.1250000
        k(    5) = (  -0.5203989  -0.3004525   0.4006228), wk =   0.1250000
        k(    6) = (   0.5203989  -0.3004525   0.4006228), wk =   0.1250000
        k(    7) = (   0.0000000   0.6009049   0.4006228), wk =   0.1250000
        k(    8) = (   0.0000000   0.0000000   0.6009342), wk =   0.1250000

     Dense  grid:    66925 G-vectors     FFT dimensions: (  60,  60,  60)

     Estimated max dynamical RAM per process >      13.66 MB

     Estimated total dynamical RAM >     327.79 MB

     The potential is recalculated from file :
     ./work/rep/Bi.save/charge-density.dat

     Starting wfc are   36 randomized atomic wfcs +    2 random wfc

     Band Structure Calculation
     Davidson diagonalization with overlap

     ethr =  3.33E-11,  avg # of iterations = 16.6

     total cpu time spent up to now is        8.0 secs

     End of band structure calculation

          k = 0.0000 0.0000 0.0000 (  8383 PWs)   bands (ev):

   -14.9481 -14.9481 -14.9433 -14.9433 -14.8882 -14.8882 -14.8858 -14.8858
   -12.0268 -12.0268 -12.0171 -12.0171 -12.0118 -12.0118 -11.8298 -11.8298
   -11.8242 -11.8242 -11.8214 -11.8214  -3.4027  -3.4027   1.7597   1.7597
     6.4349   6.4349   8.5925   8.5925   8.8430   8.8430  10.1986  10.1986
    12.6988  12.6988  12.9190  12.9190  14.7417  14.7417

          k = 0.5204 0.3005 0.2003 (  8404 PWs)   bands (ev):

   -14.9300 -14.9300 -14.9197 -14.9197 -14.9015 -14.9015 -14.8936 -14.8936
   -11.9827 -11.9827 -11.9604 -11.9604 -11.9276 -11.9276 -11.9228 -11.9228
   -11.8859 -11.8859 -11.8717 -11.8717  -1.5642  -1.5642  -1.0674  -1.0674
     7.4596   7.4596   7.4756   7.4756   9.1741   9.1741   9.2617   9.2617
     9.9210   9.9210  10.2803  10.2803  16.7760  16.7760

          k =-0.5204 0.3005 0.2003 (  8404 PWs)   bands (ev):

   -14.9300 -14.9300 -14.9197 -14.9197 -14.9015 -14.9015 -14.8936 -14.8936
   -11.9827 -11.9827 -11.9604 -11.9604 -11.9276 -11.9276 -11.9228 -11.9228
   -11.8859 -11.8859 -11.8717 -11.8717  -1.5642  -1.5642  -1.0674  -1.0674
     7.4596   7.4596   7.4756   7.4756   9.1741   9.1741   9.2617   9.2617
     9.9210   9.9210  10.2803  10.2803  16.7760  16.7760

          k = 0.0000-0.6009 0.2003 (  8404 PWs)   bands (ev):

   -14.9300 -14.9300 -14.9197 -14.9197 -14.9015 -14.9015 -14.8936 -14.8936
   -11.9827 -11.9827 -11.9604 -11.9604 -11.9276 -11.9276 -11.9228 -11.9228
   -11.8859 -11.8859 -11.8717 -11.8717  -1.5642  -1.5642  -1.0674  -1.0674
     7.4596   7.4596   7.4756   7.4756   9.1741   9.1741   9.2617   9.2617
     9.9210   9.9210  10.2803  10.2803  16.7760  16.7760

          k =-0.5204-0.3005 0.4006 (  8330 PWs)   bands (ev):

   -14.9513 -14.9513 -14.9290 -14.9290 -14.8932 -14.8932 -14.8769 -14.8769
   -12.0302 -12.0302 -11.9722 -11.9722 -11.9533 -11.9533 -11.8992 -11.8992
   -11.8782 -11.8782 -11.8084 -11.8084  -1.6985  -1.6985  -0.0217  -0.0217
     4.6137   4.6137   5.6229   5.6229   7.0015   7.0015  11.7165  11.7165
    13.0239  13.0239  15.0859  15.0859  15.4546  15.4546

          k = 0.5204-0.3005 0.4006 (  8330 PWs)   bands (ev):

   -14.9513 -14.9513 -14.9290 -14.9290 -14.8932 -14.8932 -14.8769 -14.8769
   -12.0302 -12.0302 -11.9722 -11.9722 -11.9533 -11.9533 -11.8992 -11.8992
   -11.8782 -11.8782 -11.8084 -11.8084  -1.6985  -1.6985  -0.0217  -0.0217
     4.6137   4.6137   5.6229   5.6229   7.0015   7.0015  11.7165  11.7165
    13.0239  13.0239  15.0859  15.0859  15.4546  15.4546

          k = 0.0000 0.6009 0.4006 (  8330 PWs)   bands (ev):

   -14.9513 -14.9513 -14.9290 -14.9290 -14.8932 -14.8932 -14.8769 -14.8769
   -12.0302 -12.0302 -11.9722 -11.9722 -11.9533 -11.9533 -11.8992 -11.8992
   -11.8782 -11.8782 -11.8084 -11.8084  -1.6985  -1.6985  -0.0217  -0.0217
     4.6137   4.6137   5.6229   5.6229   7.0015   7.0015  11.7165  11.7165
    13.0239  13.0239  15.0859  15.0859  15.4546  15.4546

          k = 0.0000 0.0000 0.6009 (  8340 PWs)   bands (ev):

   -14.9322 -14.9322 -14.9195 -14.9195 -14.8994 -14.8994 -14.8974 -14.8974
   -11.9899 -11.9899 -11.9666 -11.9666 -11.9626 -11.9626 -11.8858 -11.8858
   -11.8751 -11.8751 -11.8694 -11.8694  -2.1221  -2.1221  -0.6324  -0.6324
     7.5465   7.5465   7.9039   7.9039   9.4627   9.4627   9.5500   9.5500
    10.0976  10.0976  10.4075  10.4075  16.3618  16.3618

     Writing output data file Bi.save
 
     init_run     :      0.08s CPU      0.80s WALL (       1 calls)
     electrons    :      3.24s CPU      3.77s WALL (       1 calls)

     Called by init_run:
     wfcinit      :      0.00s CPU      0.00s WALL (       1 calls)
     potinit      :      0.02s CPU      0.09s WALL (       1 calls)

     Called by electrons:
     c_bands      :      3.24s CPU      3.75s WALL (       1 calls)
     v_of_rho     :      0.00s CPU      0.01s WALL (       1 calls)

     Called by c_bands:
     init_us_2    :      0.00s CPU      0.01s WALL (       8 calls)
     cegterg      :      2.93s CPU      3.06s WALL (       8 calls)

     Called by sum_band:

     Called by *egterg:
     h_psi        :      2.28s CPU      2.45s WALL (     149 calls)
     g_psi        :      0.01s CPU      0.01s WALL (     133 calls)
     cdiaghg      :      0.46s CPU      0.77s WALL (     141 calls)

     Called by h_psi:
     h_psi:pot    :      2.27s CPU      2.44s WALL (     149 calls)
     h_psi:calbec :      0.06s CPU      0.14s WALL (     149 calls)
     vloc_psi     :      2.12s CPU      2.22s WALL (     149 calls)
     add_vuspsi   :      0.08s CPU      0.08s WALL (     149 calls)

     General routines
     calbec       :      0.06s CPU      0.14s WALL (     149 calls)
     fft          :      0.00s CPU      0.43s WALL (      14 calls)
     fftw         :      1.94s CPU      2.03s WALL (   12188 calls)
     davcio       :      0.00s CPU      0.01s WALL (      16 calls)
 
     Parallel routines
     fft_scatt_xy :      0.13s CPU      0.15s WALL (   12202 calls)
     fft_scatt_yz :      0.76s CPU      0.79s WALL (   12202 calls)
 
     PWSCF        :     4.09s CPU         9.57s WALL

 
   This run was terminated on:  17:38:14  10Apr2020            

=------------------------------------------------------------------------------=
   JOB DONE.
=------------------------------------------------------------------------------=
