mpijob CMD    : mpirun -f /tmp/mpiexec.params.k050801.103480
mpijob PARAMS : -d /home/k0508/k050801/qeirreps/ver_5/qeirreps/reference/Bi_soc
        r1i6n18 24 omplace -nt 1 "/home/k0508/k050801/qe-6.6/bin/pw.x"

SGI MPT Placement option
--------------------------
omplace -nt 1

Node   MPI
------------
r1i6n18 24


     Program PWSCF v.6.6 starts on 29Nov2020 at 21: 1:57 

     This program is part of the open-source Quantum ESPRESSO suite
     for quantum simulation of materials; please cite
         "P. Giannozzi et al., J. Phys.:Condens. Matter 21 395502 (2009);
         "P. Giannozzi et al., J. Phys.:Condens. Matter 29 465901 (2017);
          URL http://www.quantum-espresso.org", 
     in publications or presentations arising from this work. More details at
     http://www.quantum-espresso.org/quote

     Parallel version (MPI), running on    24 processors

     MPI processes distributed on     1 nodes
     R & G space division:  proc/nbgrp/npool/nimage =      24
     Fft bands division:     nmany     =       1
     Waiting for input...
     Reading input from standard input

     Current dimensions of program PWSCF are:
     Max number of different atomic species (ntypx) = 10
     Max number of k-points (npk) =  40000
     Max angular momentum in pseudopotentials (lmaxx) =  3

     Subspace diagonalization in iterative solution of the eigenvalue problem:
     a serial algorithm will be used

     Message from routine setup:
     using ibrav=0 with symmetry is DISCOURAGED, use correct ibrav instead
 
     Parallelization info
     --------------------
     sticks:   dense  smooth     PW     G-vecs:    dense   smooth      PW
     Min          91      91     26                 2787     2787     435
     Max          92      92     27                 2793     2793     437
     Sum        2197    2197    641                66925    66925   10459
 


     bravais-lattice index     =            0
     lattice parameter (alat)  =       9.0662  a.u.
     unit-cell volume          =     495.7043 (a.u.)^3
     number of atoms/cell      =            2
     number of atomic types    =            1
     number of electrons       =        30.00
     number of Kohn-Sham states=           38
     kinetic-energy cutoff     =     100.0000  Ry
     charge density cutoff     =     400.0000  Ry
     convergence threshold     =      1.0E-08
     mixing beta               =       0.3000
     number of iterations used =            8  plain     mixing
     Exchange-correlation= PBE
                           (   1   4   3   4   0   0   0)
     Non magnetic calculation with spin-orbit


     celldm(1)=   9.066241  celldm(2)=   0.000000  celldm(3)=   0.000000
     celldm(4)=   0.000000  celldm(5)=   0.000000  celldm(6)=   0.000000

     crystal axes: (cart. coord. in units of alat)
               a(1) = (   0.480401   0.277359   0.832038 )  
               a(2) = (  -0.480401   0.277359   0.832038 )  
               a(3) = (   0.000000  -0.554719   0.832038 )  

     reciprocal axes: (cart. coord. in units 2 pi/alat)
               b(1) = (  1.040798  0.600905  0.400623 )  
               b(2) = ( -1.040798  0.600905  0.400623 )  
               b(3) = (  0.000000 -1.201810  0.400623 )  


     PseudoPot. # 1 for Bi read from file:
     ../../pseudo/soc/Bi.upf
     MD5 check sum: 260977096fd1df4b879f04c556a28fcb
     Pseudo is Norm-conserving + core correction, Zval = 15.0
     Generated using ONCVPSP code by D. R. Hamann
     Using radial grid of 1562 points, 10 beta functions with: 
                l(1) =   0
                l(2) =   0
                l(3) =   1
                l(4) =   1
                l(5) =   1
                l(6) =   1
                l(7) =   2
                l(8) =   2
                l(9) =   2
               l(10) =   2

     atomic species   valence    mass     pseudopotential
        Bi            15.00   208.98040     Bi( 1.00)

     12 Sym. Ops., with inversion, found



   Cartesian axes

     site n.     atom                  positions (alat units)
         1           Bi  tau(   1) = (   0.4804007   0.2773595   0.2404589  )
         2           Bi  tau(   2) = (   0.0000000   0.0000000   0.5915789  )

     number of k points=    65  Methfessel-Paxton smearing, width (Ry)=  0.0100
                       cart. coord. in units 2pi/alat
        k(    1) = (   0.0000000   0.0000000   0.0000000), wk =   0.0019531
        k(    2) = (   0.0000000  -0.1502262   0.0500779), wk =   0.0117188
        k(    3) = (   0.0000000  -0.3004525   0.1001557), wk =   0.0117188
        k(    4) = (   0.0000000  -0.4506787   0.1502336), wk =   0.0117188
        k(    5) = (   0.0000000   0.6009049  -0.2003114), wk =   0.0058594
        k(    6) = (  -0.1300997  -0.0751131   0.1001557), wk =   0.0117188
        k(    7) = (  -0.1300997  -0.2253393   0.1502336), wk =   0.0234375
        k(    8) = (  -0.1300997  -0.3755656   0.2003114), wk =   0.0234375
        k(    9) = (  -0.1300997   0.6760180  -0.1502336), wk =   0.0234375
        k(   10) = (  -0.1300997   0.5257918  -0.1001557), wk =   0.0234375
        k(   11) = (  -0.1300997   0.3755656  -0.0500779), wk =   0.0234375
        k(   12) = (  -0.1300997   0.2253393   0.0000000), wk =   0.0117188
        k(   13) = (  -0.2601995  -0.1502262   0.2003114), wk =   0.0117188
        k(   14) = (  -0.2601995  -0.3004525   0.2503893), wk =   0.0234375
        k(   15) = (  -0.2601995   0.7511312  -0.1001557), wk =   0.0234375
        k(   16) = (  -0.2601995   0.6009049  -0.0500779), wk =   0.0234375
        k(   17) = (  -0.2601995   0.4506787   0.0000000), wk =   0.0117188
        k(   18) = (  -0.3902992  -0.2253393   0.3004671), wk =   0.0117188
        k(   19) = (  -0.3902992   0.8262443  -0.0500779), wk =   0.0234375
        k(   20) = (  -0.3902992   0.6760180   0.0000000), wk =   0.0117188
        k(   21) = (   0.5203989   0.3004525  -0.4006228), wk =   0.0058594
        k(   22) = (   0.0000000   0.0000000   0.1502336), wk =   0.0039062
        k(   23) = (   0.0000000  -0.1502262   0.2003114), wk =   0.0117188
        k(   24) = (   0.0000000  -0.3004525   0.2503893), wk =   0.0117188
        k(   25) = (   0.0000000   0.7511312  -0.1001557), wk =   0.0117188
        k(   26) = (   0.0000000   0.6009049  -0.0500779), wk =   0.0117188
        k(   27) = (   0.0000000   0.4506787   0.0000000), wk =   0.0117188
        k(   28) = (   0.0000000   0.3004525   0.0500779), wk =   0.0117188
        k(   29) = (  -0.1300997  -0.0751131   0.2503893), wk =   0.0117188
        k(   30) = (  -0.1300997  -0.2253393   0.3004671), wk =   0.0234375
        k(   31) = (  -0.1300997   0.8262443  -0.0500779), wk =   0.0234375
        k(   32) = (  -0.1300997   0.6760180   0.0000000), wk =   0.0234375
        k(   33) = (  -0.1300997   0.5257918   0.0500779), wk =   0.0234375
        k(   34) = (  -0.1300997   0.3755656   0.1001557), wk =   0.0234375
        k(   35) = (  -0.2601995  -0.1502262   0.3505450), wk =   0.0117188
        k(   36) = (  -0.2601995   0.9013574   0.0000000), wk =   0.0234375
        k(   37) = (  -0.2601995   0.7511312   0.0500779), wk =   0.0234375
        k(   38) = (  -0.2601995   0.6009049   0.1001557), wk =   0.0234375
        k(   39) = (  -0.2601995   0.4506787   0.1502336), wk =   0.0234375
        k(   40) = (   0.6504987   0.3755656  -0.3505450), wk =   0.0117188
        k(   41) = (   0.6504987   0.2253393  -0.3004671), wk =   0.0234375
        k(   42) = (   0.6504987   0.0751131  -0.2503893), wk =   0.0234375
        k(   43) = (   0.6504987  -0.0751131  -0.2003114), wk =   0.0117188
        k(   44) = (   0.5203989   0.3004525  -0.2503893), wk =   0.0117188
        k(   45) = (   0.5203989   0.1502262  -0.2003114), wk =   0.0234375
        k(   46) = (   0.3902992   0.2253393  -0.1502336), wk =   0.0117188
        k(   47) = (   0.0000000   0.0000000   0.3004671), wk =   0.0039062
        k(   48) = (   0.0000000  -0.1502262   0.3505450), wk =   0.0117188
        k(   49) = (   0.0000000   0.9013574   0.0000000), wk =   0.0117188
        k(   50) = (   0.0000000   0.7511312   0.0500779), wk =   0.0117188
        k(   51) = (   0.0000000   0.6009049   0.1001557), wk =   0.0117188
        k(   52) = (  -0.1300997  -0.0751131   0.4006228), wk =   0.0117188
        k(   53) = (  -0.1300997   0.9764705   0.0500779), wk =   0.0234375
        k(   54) = (  -0.1300997   0.8262443   0.1001557), wk =   0.0234375
        k(   55) = (  -0.1300997   0.6760180   0.1502336), wk =   0.0234375
        k(   56) = (   0.7805984   0.4506787  -0.3004671), wk =   0.0117188
        k(   57) = (   0.7805984   0.3004525  -0.2503893), wk =   0.0234375
        k(   58) = (   0.7805984   0.1502262  -0.2003114), wk =   0.0117188
        k(   59) = (   0.6504987   0.3755656  -0.2003114), wk =   0.0117188
        k(   60) = (   0.0000000   0.0000000   0.4507007), wk =   0.0039062
        k(   61) = (   0.0000000   1.0515836   0.1001557), wk =   0.0117188
        k(   62) = (   0.0000000   0.9013574   0.1502336), wk =   0.0117188
        k(   63) = (   0.9106981   0.5257918  -0.2503893), wk =   0.0117188
        k(   64) = (   0.9106981   0.3755656  -0.2003114), wk =   0.0117188
        k(   65) = (   0.0000000   0.0000000  -0.6009342), wk =   0.0019531

     Dense  grid:    66925 G-vectors     FFT dimensions: (  60,  60,  60)

     Estimated max dynamical RAM per process >      38.85 MB

     Estimated total dynamical RAM >     932.34 MB

     Initial potential from superposition of free atoms

     starting charge   29.99783, renormalised to   30.00000
     Starting wfcs are   36 randomized atomic wfcs +    2 random wfcs

     total cpu time spent up to now is        2.4 secs

     Self-consistent Calculation

     iteration #  1     ecut=   100.00 Ry     beta= 0.30
     Davidson diagonalization with overlap
     ethr =  1.00E-02,  avg # of iterations =  4.4

     Threshold (ethr) on eigenvalues was too large:
     Diagonalizing with lowered threshold

     Davidson diagonalization with overlap
     ethr =  1.43E-05,  avg # of iterations =  6.4

     total cpu time spent up to now is       16.2 secs

     total energy              =    -327.59829270 Ry
     estimated scf accuracy    <       0.00438002 Ry

     iteration #  2     ecut=   100.00 Ry     beta= 0.30
     Davidson diagonalization with overlap
     ethr =  1.46E-05,  avg # of iterations =  1.0

     total cpu time spent up to now is       21.1 secs

     total energy              =    -327.59825566 Ry
     estimated scf accuracy    <       0.00196092 Ry

     iteration #  3     ecut=   100.00 Ry     beta= 0.30
     Davidson diagonalization with overlap
     ethr =  6.54E-06,  avg # of iterations =  1.7

     total cpu time spent up to now is       26.2 secs

     total energy              =    -327.59837229 Ry
     estimated scf accuracy    <       0.00004895 Ry

     iteration #  4     ecut=   100.00 Ry     beta= 0.30
     Davidson diagonalization with overlap
     ethr =  1.63E-07,  avg # of iterations =  2.0

     total cpu time spent up to now is       32.7 secs

     total energy              =    -327.59838313 Ry
     estimated scf accuracy    <       0.00000524 Ry

     iteration #  5     ecut=   100.00 Ry     beta= 0.30
     Davidson diagonalization with overlap
     ethr =  1.75E-08,  avg # of iterations =  2.0

     total cpu time spent up to now is       38.2 secs

     total energy              =    -327.59838377 Ry
     estimated scf accuracy    <       0.00000121 Ry

     iteration #  6     ecut=   100.00 Ry     beta= 0.30
     Davidson diagonalization with overlap
     ethr =  4.04E-09,  avg # of iterations =  2.0

     total cpu time spent up to now is       43.6 secs

     total energy              =    -327.59838391 Ry
     estimated scf accuracy    <       0.00000011 Ry

     iteration #  7     ecut=   100.00 Ry     beta= 0.30
     Davidson diagonalization with overlap
     ethr =  3.54E-10,  avg # of iterations =  2.0

     total cpu time spent up to now is       49.1 secs

     End of self-consistent calculation

          k = 0.0000 0.0000 0.0000 (  8383 PWs)   bands (ev):

   -14.9478 -14.9478 -14.9429 -14.9429 -14.8879 -14.8879 -14.8854 -14.8854
   -12.0265 -12.0265 -12.0167 -12.0167 -12.0115 -12.0115 -11.8294 -11.8294
   -11.8238 -11.8238 -11.8211 -11.8211  -3.4026  -3.4026   1.7598   1.7598
     6.4350   6.4350   8.5926   8.5926   8.8430   8.8430  10.1986  10.1986
    12.6988  12.6988  12.9190  12.9190  14.7424  14.7426

          k = 0.0000-0.1502 0.0501 (  8368 PWs)   bands (ev):

   -14.9452 -14.9452 -14.9406 -14.9406 -14.8887 -14.8887 -14.8865 -14.8865
   -12.0212 -12.0212 -12.0173 -12.0173 -11.9981 -11.9981 -11.8433 -11.8433
   -11.8288 -11.8288 -11.8234 -11.8234  -3.2650  -3.2650   1.4571   1.4571
     6.5188   6.5188   8.5992   8.5992   8.7694   8.7694   9.9759   9.9759
    12.1435  12.1435  12.4039  12.4039  14.4337  14.4338

          k = 0.0000-0.3005 0.1002 (  8390 PWs)   bands (ev):

   -14.9390 -14.9390 -14.9340 -14.9340 -14.8918 -14.8918 -14.8890 -14.8890
   -12.0108 -12.0108 -12.0019 -12.0019 -11.9729 -11.9729 -11.8700 -11.8700
   -11.8494 -11.8494 -11.8341 -11.8341  -2.8595  -2.8595   0.6863   0.6863
     6.7330   6.7330   8.3979   8.3979   8.8039   8.8039   9.5304   9.5304
    11.0852  11.0852  11.5372  11.5372  14.5845  14.5846

          k = 0.0000-0.4507 0.1502 (  8389 PWs)   bands (ev):

   -14.9326 -14.9326 -14.9249 -14.9249 -14.8972 -14.8972 -14.8918 -14.8918
   -11.9939 -11.9939 -11.9772 -11.9772 -11.9441 -11.9441 -11.9013 -11.9013
   -11.8749 -11.8749 -11.8547 -11.8547  -2.2148  -2.2148  -0.2882  -0.2882
     7.0470   7.0470   7.9647   7.9647   8.9794   8.9794   9.3108   9.3108
    10.2457  10.2457  10.6995  10.6995  15.5486  15.5486

          k = 0.0000 0.6009-0.2003 (  8404 PWs)   bands (ev):

   -14.9297 -14.9297 -14.9194 -14.9194 -14.9012 -14.9012 -14.8933 -14.8933
   -11.9824 -11.9824 -11.9601 -11.9601 -11.9273 -11.9273 -11.9224 -11.9224
   -11.8856 -11.8856 -11.8713 -11.8713  -1.5641  -1.5641  -1.0672  -1.0672
     7.4597   7.4597   7.4756   7.4756   9.1741   9.1741   9.2617   9.2617
     9.9210   9.9210  10.2804  10.2804  16.7759  16.7759

          k =-0.1301-0.0751 0.1002 (  8355 PWs)   bands (ev):

   -14.9469 -14.9469 -14.9378 -14.9378 -14.8909 -14.8909 -14.8849 -14.8849
   -12.0249 -12.0249 -12.0111 -12.0111 -11.9965 -11.9965 -11.8472 -11.8472
   -11.8338 -11.8338 -11.8191 -11.8191  -3.2273  -3.2273   1.3955   1.3955
     6.4463   6.4463   8.3281   8.3281   9.0548   9.0548   9.8164   9.8164
    11.8724  11.8724  12.9710  12.9710  14.1596  14.1597

          k =-0.1301-0.2253 0.1502 (  8374 PWs)   bands (ev):

   -14.9448 -14.9448 -14.9307 -14.9307 -14.8950 -14.8950 -14.8847 -14.8847
   -12.0208 -12.0208 -11.9984 -11.9984 -11.9772 -11.9772 -11.8700 -11.8700
   -11.8475 -11.8475 -11.8235 -11.8235  -2.9224  -2.9224   0.8680   0.8680
     6.4198   6.4198   7.9728   7.9728   8.6033   8.6033  10.0675  10.0675
    11.3996  11.3996  12.6563  12.6563  13.8680  13.8680

          k =-0.1301-0.3756 0.2003 (  8387 PWs)   bands (ev):

   -14.9394 -14.9394 -14.9235 -14.9235 -14.8994 -14.8994 -14.8863 -14.8863
   -12.0076 -12.0076 -11.9791 -11.9791 -11.9521 -11.9521 -11.8960 -11.8960
   -11.8693 -11.8693 -11.8397 -11.8397  -2.3713  -2.3713   0.0380   0.0380
     6.5204   6.5204   7.4542   7.4542   8.2316   8.2316  10.4198  10.4198
    10.8215  10.8215  11.9077  11.9077  14.4711  14.4711

          k =-0.1301 0.6760-0.1502 (  8375 PWs)   bands (ev):

   -14.9349 -14.9349 -14.9180 -14.9180 -14.9035 -14.9035 -14.8879 -14.8879
   -11.9921 -11.9921 -11.9628 -11.9628 -11.9371 -11.9371 -11.9098 -11.9098
   -11.8867 -11.8867 -11.8593 -11.8593  -1.6483  -1.6483  -0.8571  -0.8571
     6.6533   6.6533   7.0874   7.0874   8.3076   8.3076   9.9399   9.9399
    10.8243  10.8243  11.4808  11.4808  15.8882  15.8882

          k =-0.1301 0.5258-0.1002 (  8397 PWs)   bands (ev):

   -14.9364 -14.9364 -14.9154 -14.9154 -14.9060 -14.9060 -14.8870 -14.8870
   -11.9963 -11.9963 -11.9624 -11.9624 -11.9346 -11.9346 -11.9165 -11.9165
   -11.8824 -11.8824 -11.8550 -11.8550  -1.8504  -1.8504  -0.6301  -0.6301
     6.4755   6.4755   7.4647   7.4647   8.5800   8.5800   9.6199   9.6199
    10.3236  10.3236  11.9433  11.9433  15.5358  15.5358

          k =-0.1301 0.3756-0.0501 (  8393 PWs)   bands (ev):

   -14.9409 -14.9409 -14.9240 -14.9240 -14.8995 -14.8995 -14.8856 -14.8856
   -12.0114 -12.0114 -11.9832 -11.9832 -11.9570 -11.9570 -11.8922 -11.8922
   -11.8628 -11.8628 -11.8357 -11.8357  -2.5455  -2.5455   0.2723   0.2723
     6.4261   6.4261   8.1033   8.1033   8.6235   8.6235   9.8236   9.8236
    10.1145  10.1145  12.5061  12.5061  14.4712  14.4712

          k =-0.1301 0.2253 0.0000 (  8384 PWs)   bands (ev):

   -14.9442 -14.9442 -14.9343 -14.9343 -14.8927 -14.8927 -14.8856 -14.8856
   -12.0205 -12.0205 -12.0046 -12.0046 -11.9823 -11.9823 -11.8624 -11.8624
   -11.8423 -11.8423 -11.8240 -11.8240  -3.0328  -3.0328   1.0376   1.0376
     6.5049   6.5049   8.4626   8.4626   8.7530   8.7530   9.7203   9.7203
    11.0748  11.0748  12.6970  12.6970  14.1161  14.1162

          k =-0.2602-0.1502 0.2003 (  8374 PWs)   bands (ev):

   -14.9484 -14.9484 -14.9246 -14.9246 -14.8993 -14.8993 -14.8814 -14.8814
   -12.0269 -12.0269 -11.9864 -11.9864 -11.9685 -11.9685 -11.8872 -11.8872
   -11.8542 -11.8542 -11.8150 -11.8150  -2.7330  -2.7330   0.7283   0.7283
     6.0939   6.0939   7.2455   7.2455   7.8338   7.8338  11.2485  11.2485
    11.7557  11.7557  12.9116  12.9116  14.0852  14.0852

          k =-0.2602-0.3005 0.2504 (  8368 PWs)   bands (ev):

   -14.9471 -14.9471 -14.9218 -14.9218 -14.9005 -14.9005 -14.8807 -14.8807
   -12.0229 -12.0229 -11.9727 -11.9727 -11.9547 -11.9547 -11.9031 -11.9031
   -11.8679 -11.8679 -11.8198 -11.8198  -2.3134  -2.3134   0.2445   0.2445
     5.9170   5.9170   6.4388   6.4388   7.5461   7.5461  11.6050  11.6050
    12.2976  12.2976  12.8940  12.8940  13.7860  13.7860

          k =-0.2602 0.7511-0.1002 (  8370 PWs)   bands (ev):

   -14.9428 -14.9428 -14.9222 -14.9222 -14.8998 -14.8998 -14.8815 -14.8815
   -12.0106 -12.0106 -11.9665 -11.9665 -11.9462 -11.9462 -11.9002 -11.9002
   -11.8851 -11.8851 -11.8358 -11.8358  -1.7169  -1.7169  -0.4734  -0.4734
     5.6202   5.6202   6.3061   6.3061   7.5648   7.5648  11.0572  11.0572
    12.4772  12.4772  13.1327  13.1327  14.1420  14.1420

          k =-0.2602 0.6009-0.0501 (  8368 PWs)   bands (ev):

   -14.9407 -14.9407 -14.9186 -14.9186 -14.9033 -14.9033 -14.8822 -14.8822
   -12.0015 -12.0015 -11.9684 -11.9684 -11.9343 -11.9343 -11.9107 -11.9107
   -11.8815 -11.8815 -11.8496 -11.8496  -1.3294  -1.3294  -0.9542  -0.9542
     5.4834   5.4834   6.7075   6.7075   7.8962   7.8962  10.3383  10.3383
    11.6457  11.6457  13.6092  13.6092  15.6148  15.6150

          k =-0.2602 0.4507 0.0000 (  8374 PWs)   bands (ev):

   -14.9414 -14.9414 -14.9126 -14.9126 -14.9092 -14.9092 -14.8831 -14.8831
   -12.0068 -12.0068 -11.9663 -11.9663 -11.9379 -11.9379 -11.9149 -11.9149
   -11.8761 -11.8761 -11.8431 -11.8431  -2.0064  -2.0064  -0.3052  -0.3052
     5.7882   5.7882   7.3709   7.3709   8.4480   8.4480   9.7424   9.7424
    10.7380  10.7380  13.5114  13.5114  14.8482  14.8482

          k =-0.3903-0.2253 0.3005 (  8359 PWs)   bands (ev):

   -14.9503 -14.9503 -14.9244 -14.9244 -14.8973 -14.8973 -14.8780 -14.8780
   -12.0290 -12.0290 -11.9675 -11.9675 -11.9558 -11.9558 -11.9058 -11.9058
   -11.8714 -11.8714 -11.8104 -11.8104  -2.0712  -2.0712   0.1981   0.1981
     5.3190   5.3190   5.8412   5.8412   7.2056   7.2056  11.7770  11.7770
    12.8876  12.8876  13.7957  13.7957  14.7269  14.7269

          k =-0.3903 0.8262-0.0501 (  8360 PWs)   bands (ev):

   -14.9488 -14.9488 -14.9269 -14.9269 -14.8948 -14.8948 -14.8777 -14.8777
   -12.0248 -12.0248 -11.9702 -11.9702 -11.9515 -11.9515 -11.8986 -11.8986
   -11.8802 -11.8802 -11.8157 -11.8157  -1.7131  -1.7131  -0.1473  -0.1473
     4.8746   4.8746   5.7996   5.7996   7.1327   7.1327  11.8654  11.8654
    12.8207  12.8207  14.2591  14.2591  14.8190  14.8190

          k =-0.3903 0.6760 0.0000 (  8366 PWs)   bands (ev):

   -14.9447 -14.9447 -14.9256 -14.9256 -14.8967 -14.8967 -14.8791 -14.8791
   -12.0127 -12.0127 -11.9746 -11.9746 -11.9417 -11.9417 -11.8974 -11.8974
   -11.8843 -11.8843 -11.8327 -11.8327  -1.3321  -1.3321  -0.6965  -0.6965
     4.9032   4.9032   6.1135   6.1135   7.3518   7.3518  11.3337  11.3337
    12.9054  12.9054  13.8096  13.8096  14.9450  14.9450

          k = 0.5204 0.3005-0.4006 (  8330 PWs)   bands (ev):

   -14.9510 -14.9510 -14.9287 -14.9287 -14.8928 -14.8928 -14.8766 -14.8766
   -12.0299 -12.0299 -11.9719 -11.9719 -11.9530 -11.9530 -11.8988 -11.8988
   -11.8778 -11.8778 -11.8080 -11.8080  -1.6984  -1.6984  -0.0216  -0.0216
     4.6137   4.6137   5.6229   5.6229   7.0016   7.0016  11.7164  11.7164
    13.0240  13.0240  15.0859  15.0859  15.4547  15.4547

          k = 0.0000 0.0000 0.1502 (  8349 PWs)   bands (ev):

   -14.9458 -14.9458 -14.9403 -14.9403 -14.8889 -14.8889 -14.8866 -14.8866
   -12.0225 -12.0225 -12.0111 -12.0111 -12.0061 -12.0061 -11.8344 -11.8344
   -11.8305 -11.8305 -11.8272 -11.8272  -3.2861  -3.2861   1.4476   1.4476
     6.5570   6.5570   8.6213   8.6213   8.8838   8.8838   9.9689   9.9689
    12.1963  12.1963  12.4745  12.4745  14.3363  14.3363

          k = 0.0000-0.1502 0.2003 (  8362 PWs)   bands (ev):

   -14.9437 -14.9437 -14.9355 -14.9355 -14.8916 -14.8916 -14.8868 -14.8868
   -12.0170 -12.0170 -12.0082 -12.0082 -11.9885 -11.9885 -11.8543 -11.8543
   -11.8381 -11.8381 -11.8296 -11.8296  -3.0746  -3.0746   1.0400   1.0400
     6.5111   6.5111   8.4418   8.4418   9.1167   9.1167   9.6557   9.6557
    11.1771  11.1771  12.7289  12.7289  14.3713  14.3713

          k = 0.0000-0.3005 0.2504 (  8380 PWs)   bands (ev):

   -14.9382 -14.9382 -14.9295 -14.9295 -14.8944 -14.8944 -14.8888 -14.8888
   -12.0048 -12.0048 -11.9956 -11.9956 -11.9613 -11.9613 -11.8823 -11.8823
   -11.8558 -11.8558 -11.8422 -11.8422  -2.6056  -2.6056   0.3085   0.3085
     6.3448   6.3448   8.1310   8.1310   8.9700   8.9700   9.7068   9.7068
    10.3608  10.3608  12.4372  12.4372  14.7278  14.7278

          k = 0.0000 0.7511-0.1002 (  8370 PWs)   bands (ev):

   -14.9313 -14.9313 -14.9268 -14.9268 -14.8943 -14.8943 -14.8930 -14.8930
   -11.9890 -11.9890 -11.9786 -11.9786 -11.9390 -11.9390 -11.9030 -11.9030
   -11.8763 -11.8763 -11.8609 -11.8609  -1.9256  -1.9256  -0.5661  -0.5661
     6.3784   6.3784   7.5228   7.5228   8.8017   8.8017   9.5900   9.5900
    10.5488  10.5488  11.7101  11.7101  15.9581  15.9581

          k = 0.0000 0.6009-0.0501 (  8394 PWs)   bands (ev):

   -14.9339 -14.9339 -14.9211 -14.9211 -14.8997 -14.8997 -14.8896 -14.8896
   -11.9926 -11.9926 -11.9610 -11.9610 -11.9366 -11.9366 -11.9130 -11.9130
   -11.8861 -11.8861 -11.8584 -11.8584  -1.6353  -1.6353  -0.8758  -0.8758
     6.7340   6.7340   6.9930   6.9930   8.3986   8.3986   9.9754   9.9754
    10.9478  10.9478  11.1895  11.1895  15.2564  15.2564

          k = 0.0000 0.4507 0.0000 (  8396 PWs)   bands (ev):

   -14.9402 -14.9402 -14.9215 -14.9215 -14.9007 -14.9007 -14.8859 -14.8859
   -12.0095 -12.0095 -11.9741 -11.9741 -11.9478 -11.9478 -11.9050 -11.9050
   -11.8701 -11.8701 -11.8373 -11.8373  -2.3380  -2.3380   0.0066   0.0066
     6.6216   6.6216   7.4029   7.4029   8.1775   8.1775  10.3989  10.3989
    10.6950  10.6950  11.8545  11.8545  14.1321  14.1321

          k = 0.0000 0.3005 0.0501 (  8364 PWs)   bands (ev):

   -14.9452 -14.9452 -14.9299 -14.9299 -14.8956 -14.8956 -14.8842 -14.8842
   -12.0220 -12.0220 -11.9963 -11.9963 -11.9749 -11.9749 -11.8739 -11.8739
   -11.8486 -11.8486 -11.8219 -11.8219  -2.9028  -2.9028   0.8593   0.8593
     6.4400   6.4400   8.0511   8.0511   8.4209   8.4209  10.0405  10.0405
    11.3404  11.3404  12.6115  12.6115  13.7694  13.7694

          k =-0.1301-0.0751 0.2504 (  8368 PWs)   bands (ev):

   -14.9452 -14.9452 -14.9309 -14.9309 -14.8949 -14.8949 -14.8852 -14.8852
   -12.0206 -12.0206 -11.9970 -11.9970 -11.9852 -11.9852 -11.8633 -11.8633
   -11.8458 -11.8458 -11.8251 -11.8251  -2.9663  -2.9663   0.8694   0.8694
     6.4675   6.4675   8.0368   8.0368   8.7331   8.7331  10.0905  10.0905
    11.4683  11.4683  12.7607  12.7607  13.9591  13.9591

          k =-0.1301-0.2253 0.3005 (  8365 PWs)   bands (ev):

   -14.9438 -14.9438 -14.9254 -14.9254 -14.8982 -14.8982 -14.8844 -14.8844
   -12.0171 -12.0171 -11.9864 -11.9864 -11.9648 -11.9648 -11.8856 -11.8856
   -11.8580 -11.8580 -11.8288 -11.8288  -2.6063  -2.6063   0.4056   0.4056
     6.1446   6.1446   7.4092   7.4092   8.3246   8.3246  10.6789  10.6789
    11.2614  11.2614  13.0623  13.0623  14.0182  14.0182

          k =-0.1301 0.8262-0.0501 (  8374 PWs)   bands (ev):

   -14.9394 -14.9394 -14.9249 -14.9249 -14.8974 -14.8974 -14.8855 -14.8855
   -12.0057 -12.0057 -11.9771 -11.9771 -11.9458 -11.9458 -11.8992 -11.8992
   -11.8740 -11.8740 -11.8429 -11.8429  -2.0309  -2.0309  -0.2725  -0.2725
     5.8921   5.8921   6.6556   6.6556   8.5490   8.5490  10.0464  10.0464
    11.8776  11.8776  12.9690  12.9690  14.5165  14.5165

          k =-0.1301 0.6760 0.0000 (  8375 PWs)   bands (ev):

   -14.9376 -14.9376 -14.9240 -14.9240 -14.8979 -14.8979 -14.8854 -14.8854
   -11.9980 -11.9980 -11.9714 -11.9714 -11.9383 -11.9383 -11.9039 -11.9039
   -11.8821 -11.8821 -11.8526 -11.8526  -1.4345  -1.4345  -0.9114  -0.9114
     5.9845   5.9845   6.1952   6.1952   8.7341   8.7341   9.6077   9.6077
    12.2510  12.2510  12.5694  12.5694  15.3660  15.3661

          k =-0.1301 0.5258 0.0501 (  8384 PWs)   bands (ev):

   -14.9415 -14.9415 -14.9189 -14.9189 -14.9026 -14.9026 -14.8833 -14.8833
   -12.0086 -12.0086 -11.9640 -11.9640 -11.9405 -11.9405 -11.9137 -11.9137
   -11.8788 -11.8788 -11.8393 -11.8393  -1.9225  -1.9225  -0.3645  -0.3645
     5.9948   5.9948   6.5667   6.5667   8.3797   8.3797  10.0117  10.0117
    11.6020  11.6020  12.9585  12.9585  14.2946  14.2946

          k =-0.1301 0.3756 0.1002 (  8362 PWs)   bands (ev):

   -14.9447 -14.9447 -14.9220 -14.9220 -14.9011 -14.9011 -14.8828 -14.8828
   -12.0188 -12.0188 -11.9798 -11.9798 -11.9565 -11.9565 -11.8974 -11.8974
   -11.8628 -11.8628 -11.8260 -11.8260  -2.5231  -2.5231   0.3628   0.3628
     6.1773   6.1773   7.3802   7.3802   8.0569   8.0569  10.7381  10.7381
    10.9250  10.9250  12.9572  12.9572  13.8762  13.8762

          k =-0.2602-0.1502 0.3505 (  8363 PWs)   bands (ev):

   -14.9470 -14.9470 -14.9231 -14.9231 -14.8994 -14.8994 -14.8814 -14.8814
   -12.0233 -12.0233 -11.9740 -11.9740 -11.9622 -11.9622 -11.8964 -11.8964
   -11.8649 -11.8649 -11.8198 -11.8198  -2.3802  -2.3802   0.2784   0.2784
     5.8897   5.8897   6.5494   6.5494   7.6364   7.6364  11.6147  11.6147
    12.4490  12.4490  12.9434  12.9434  13.9727  13.9727

          k =-0.2602 0.9014 0.0000 (  8369 PWs)   bands (ev):

   -14.9460 -14.9460 -14.9255 -14.9255 -14.8965 -14.8965 -14.8806 -14.8806
   -12.0200 -12.0200 -11.9720 -11.9720 -11.9531 -11.9531 -11.8981 -11.8981
   -11.8751 -11.8751 -11.8236 -11.8236  -1.9662  -1.9662  -0.0853  -0.0853
     5.4310   5.4310   5.9326   5.9326   7.6903   7.6903  11.3400  11.3400
    12.9529  12.9529  13.6179  13.6179  14.2845  14.2845

          k =-0.2602 0.7511 0.0501 (  8358 PWs)   bands (ev):

   -14.9431 -14.9431 -14.9269 -14.9269 -14.8955 -14.8955 -14.8807 -14.8807
   -12.0102 -12.0102 -11.9777 -11.9777 -11.9418 -11.9418 -11.8981 -11.8981
   -11.8791 -11.8791 -11.8368 -11.8368  -1.4466  -1.4466  -0.6332  -0.6332
     5.1928   5.1928   5.6814   5.6814   8.1256   8.1256  10.5244  10.5244
    13.4151  13.4151  14.0047  14.0047  14.5182  14.5182

          k =-0.2602 0.6009 0.1002 (  8378 PWs)   bands (ev):

   -14.9424 -14.9424 -14.9221 -14.9221 -14.9000 -14.9000 -14.8808 -14.8808
   -12.0060 -12.0060 -11.9725 -11.9725 -11.9361 -11.9361 -11.9079 -11.9079
   -11.8786 -11.8786 -11.8439 -11.8439  -1.3585  -1.3585  -0.8148  -0.8148
     5.3253   5.3253   5.9870   5.9870   8.5473   8.5473   9.7546   9.7546
    12.7650  12.7650  13.9909  13.9909  15.0275  15.0275

          k =-0.2602 0.4507 0.1502 (  8381 PWs)   bands (ev):

   -14.9419 -14.9419 -14.9167 -14.9167 -14.9051 -14.9051 -14.8826 -14.8826
   -12.0085 -12.0085 -11.9642 -11.9642 -11.9424 -11.9424 -11.9105 -11.9105
   -11.8797 -11.8797 -11.8397 -11.8397  -1.9284  -1.9284  -0.3518  -0.3518
     5.8986   5.8986   6.7192   6.7192   8.2150   8.2150  10.0056  10.0056
    11.7167  11.7167  13.1044  13.1044  14.4305  14.4305

          k = 0.6505 0.3756-0.3505 (  8365 PWs)   bands (ev):

   -14.9485 -14.9485 -14.9282 -14.9282 -14.8936 -14.8936 -14.8786 -14.8786
   -12.0252 -12.0252 -11.9724 -11.9724 -11.9535 -11.9535 -11.8963 -11.8963
   -11.8778 -11.8778 -11.8154 -11.8154  -1.7796  -1.7796  -0.0982  -0.0982
     4.8550   4.8550   5.8645   5.8645   7.1974   7.1974  11.8093  11.8093
    12.8830  12.8830  14.4171  14.4171  14.9073  14.9073

          k = 0.6505 0.2253-0.3005 (  8371 PWs)   bands (ev):

   -14.9472 -14.9472 -14.9287 -14.9287 -14.8932 -14.8932 -14.8785 -14.8785
   -12.0212 -12.0212 -11.9757 -11.9757 -11.9475 -11.9475 -11.8952 -11.8952
   -11.8811 -11.8811 -11.8208 -11.8208  -1.5505  -1.5505  -0.3315  -0.3315
     4.7537   4.7537   5.6736   5.6736   7.4343   7.4343  11.5266  11.5266
    12.8689  12.8689  14.5297  14.5297  15.1580  15.1580

          k = 0.6505 0.0751-0.2504 (  8362 PWs)   bands (ev):

   -14.9441 -14.9441 -14.9246 -14.9246 -14.8976 -14.8976 -14.8796 -14.8796
   -12.0108 -12.0108 -11.9742 -11.9742 -11.9399 -11.9399 -11.9019 -11.9019
   -11.8809 -11.8809 -11.8362 -11.8362  -1.3454  -1.3454  -0.7245  -0.7245
     5.1311   5.1311   5.7681   5.7681   8.0111   8.0111  10.4483  10.4483
    13.4448  13.4448  13.9875  13.9875  14.5446  14.5446

          k = 0.6505-0.0751-0.2003 (  8390 PWs)   bands (ev):

   -14.9400 -14.9400 -14.9165 -14.9165 -14.9053 -14.9053 -14.8827 -14.8827
   -11.9998 -11.9998 -11.9655 -11.9655 -11.9345 -11.9345 -11.9114 -11.9114
   -11.8840 -11.8840 -11.8512 -11.8512  -1.2861  -1.2861  -1.0453  -1.0453
     5.8064   5.8064   6.4592   6.4592   8.3817   8.3817   9.6234   9.6234
    12.2648  12.2648  12.7789  12.7789  15.7353  15.7354

          k = 0.5204 0.3005-0.2504 (  8374 PWs)   bands (ev):

   -14.9485 -14.9485 -14.9276 -14.9276 -14.8938 -14.8938 -14.8783 -14.8783
   -12.0248 -12.0248 -11.9699 -11.9699 -11.9511 -11.9511 -11.9002 -11.9002
   -11.8795 -11.8795 -11.8154 -11.8154  -1.7060  -1.7060  -0.1628  -0.1628
     4.8830   4.8830   5.8074   5.8074   7.1701   7.1701  11.7451  11.7451
    12.8241  12.8241  14.3035  14.3035  14.6705  14.6705

          k = 0.5204 0.1502-0.2003 (  8362 PWs)   bands (ev):

   -14.9466 -14.9466 -14.9233 -14.9233 -14.8983 -14.8983 -14.8796 -14.8796
   -12.0200 -12.0200 -11.9653 -11.9653 -11.9492 -11.9492 -11.9063 -11.9063
   -11.8784 -11.8784 -11.8230 -11.8230  -1.8610  -1.8610  -0.1700  -0.1700
     5.4607   5.4607   5.8943   5.8943   7.5671   7.5671  11.2207  11.2207
    12.8508  12.8508  13.3968  13.3968  14.2276  14.2276

          k = 0.3903 0.2253-0.1502 (  8367 PWs)   bands (ev):

   -14.9472 -14.9472 -14.9211 -14.9211 -14.9007 -14.9007 -14.8806 -14.8806
   -12.0232 -12.0232 -11.9706 -11.9706 -11.9502 -11.9502 -11.9095 -11.9095
   -11.8687 -11.8687 -11.8190 -11.8190  -2.2805  -2.2805   0.2143   0.2143
     6.0199   6.0199   6.3361   6.3361   7.5404   7.5404  11.5293  11.5293
    12.1593  12.1593  12.8060  12.8060  13.7152  13.7152

          k = 0.0000 0.0000 0.3005 (  8376 PWs)   bands (ev):

   -14.9407 -14.9407 -14.9331 -14.9331 -14.8917 -14.8917 -14.8901 -14.8901
   -12.0113 -12.0113 -11.9955 -11.9955 -11.9919 -11.9919 -11.8487 -11.8487
   -11.8484 -11.8484 -11.8426 -11.8426  -2.9497  -2.9497   0.6941   0.6941
     6.8476   6.8476   8.5901   8.5901   9.0207   9.0207   9.5527   9.5527
    11.2848  11.2848  11.6063  11.6063  14.5496  14.5496

          k = 0.0000-0.1502 0.3505 (  8356 PWs)   bands (ev):

   -14.9400 -14.9400 -14.9278 -14.9278 -14.8960 -14.8960 -14.8885 -14.8885
   -12.0079 -12.0079 -11.9924 -11.9924 -11.9713 -11.9713 -11.8745 -11.8745
   -11.8514 -11.8514 -11.8439 -11.8439  -2.6808  -2.6808   0.3268   0.3268
     6.4523   6.4523   8.2910   8.2910   8.9733   8.9733   9.8955   9.8955
    10.2947  10.2947  12.6456  12.6456  14.6922  14.6923

          k = 0.0000 0.9014 0.0000 (  8362 PWs)   bands (ev):

   -14.9376 -14.9376 -14.9268 -14.9268 -14.8953 -14.8953 -14.8884 -14.8884
   -12.0003 -12.0003 -11.9879 -11.9879 -11.9479 -11.9479 -11.8952 -11.8952
   -11.8604 -11.8604 -11.8526 -11.8526  -2.1859  -2.1859  -0.1778  -0.1778
     5.7414   5.7414   7.5308   7.5308   8.7614   8.7614   9.8204   9.8204
    10.9531  10.9531  13.5421  13.5421  15.1820  15.1821

          k = 0.0000 0.7511 0.0501 (  8389 PWs)   bands (ev):

   -14.9355 -14.9355 -14.9298 -14.9298 -14.8920 -14.8920 -14.8883 -14.8883
   -11.9970 -11.9970 -11.9817 -11.9817 -11.9395 -11.9395 -11.8992 -11.8992
   -11.8754 -11.8754 -11.8527 -11.8527  -1.5810  -1.5810  -0.7310  -0.7310
     5.4344   5.4344   6.8101   6.8101   8.0930   8.0930  10.4104  10.4104
    11.7619  11.7619  13.4407  13.4407  15.1207  15.1207

          k = 0.0000 0.6009 0.1002 (  8374 PWs)   bands (ev):

   -14.9419 -14.9419 -14.9247 -14.9247 -14.8965 -14.8965 -14.8832 -14.8832
   -12.0109 -12.0109 -11.9651 -11.9651 -11.9456 -11.9456 -11.9046 -11.9046
   -11.8833 -11.8833 -11.8348 -11.8348  -1.6999  -1.6999  -0.5041  -0.5041
     5.6446   5.6446   6.3063   6.3063   7.6561   7.6561  11.0334  11.0334
    12.4447  12.4447  12.9016  12.9016  13.8571  13.8571

          k =-0.1301-0.0751 0.4006 (  8359 PWs)   bands (ev):

   -14.9400 -14.9400 -14.9245 -14.9245 -14.8984 -14.8984 -14.8879 -14.8879
   -12.0091 -12.0091 -11.9795 -11.9795 -11.9701 -11.9701 -11.8810 -11.8810
   -11.8622 -11.8622 -11.8408 -11.8408  -2.5226  -2.5226   0.1034   0.1034
     6.6184   6.6184   7.6382   7.6382   8.4451   8.4451  10.4819  10.4819
    11.0219  11.0219  12.1210  12.1210  14.3738  14.3738

          k =-0.1301 0.9765 0.0501 (  8353 PWs)   bands (ev):

   -14.9400 -14.9400 -14.9249 -14.9249 -14.8971 -14.8971 -14.8864 -14.8864
   -12.0079 -12.0079 -11.9786 -11.9786 -11.9536 -11.9536 -11.8929 -11.8929
   -11.8690 -11.8690 -11.8419 -11.8419  -2.1520  -2.1520  -0.1997  -0.1997
     5.9282   5.9282   6.7914   6.7914   8.6521   8.6521  10.0774  10.0774
    11.9537  11.9537  13.2144  13.2144  14.4848  14.4848

          k =-0.1301 0.8262 0.1002 (  8359 PWs)   bands (ev):

   -14.9393 -14.9393 -14.9294 -14.9294 -14.8931 -14.8931 -14.8849 -14.8849
   -12.0037 -12.0037 -11.9839 -11.9839 -11.9425 -11.9425 -11.8967 -11.8967
   -11.8712 -11.8712 -11.8462 -11.8462  -1.6480  -1.6480  -0.5623  -0.5623
     5.3007   5.3007   6.0724   6.0724   8.8784   8.8784   9.7320   9.7320
    12.9299  12.9299  14.0804  14.0804  15.0807  15.0807

          k =-0.1301 0.6760 0.1502 (  8370 PWs)   bands (ev):

   -14.9427 -14.9427 -14.9279 -14.9279 -14.8941 -14.8941 -14.8816 -14.8816
   -12.0104 -12.0104 -11.9769 -11.9769 -11.9419 -11.9419 -11.8990 -11.8990
   -11.8793 -11.8793 -11.8361 -11.8361  -1.4316  -1.4316  -0.6553  -0.6553
     5.1604   5.1604   5.7474   5.7474   8.1582   8.1582  10.4646  10.4646
    13.2526  13.2526  14.0278  14.0278  14.4244  14.4244

          k = 0.7806 0.4507-0.3005 (  8377 PWs)   bands (ev):

   -14.9418 -14.9418 -14.9264 -14.9264 -14.8955 -14.8955 -14.8844 -14.8844
   -12.0123 -12.0123 -11.9733 -11.9733 -11.9550 -11.9550 -11.8906 -11.8906
   -11.8775 -11.8775 -11.8349 -11.8349  -1.9445  -1.9445  -0.3085  -0.3085
     5.5996   5.5996   6.4999   6.4999   7.7608   7.7608  11.1687  11.1687
    12.6185  12.6185  13.3904  13.3904  14.0341  14.0341

          k = 0.7806 0.3005-0.2504 (  8375 PWs)   bands (ev):

   -14.9421 -14.9421 -14.9296 -14.9296 -14.8927 -14.8927 -14.8828 -14.8828
   -12.0108 -12.0108 -11.9814 -11.9814 -11.9458 -11.9458 -11.8934 -11.8934
   -11.8755 -11.8755 -11.8363 -11.8363  -1.6194  -1.6194  -0.4905  -0.4905
     5.1442   5.1442   5.8168   5.8168   8.2481   8.2481  10.5429  10.5429
    13.3489  13.3489  14.2476  14.2476  14.5441  14.5441

          k = 0.7806 0.1502-0.2003 (  8360 PWs)   bands (ev):

   -14.9431 -14.9431 -14.9289 -14.9289 -14.8938 -14.8938 -14.8805 -14.8805
   -12.0089 -12.0089 -11.9837 -11.9837 -11.9390 -11.9390 -11.9004 -11.9004
   -11.8720 -11.8720 -11.8395 -11.8395  -1.2915  -1.2915  -0.7361  -0.7361
     5.1293   5.1293   5.2841   5.2841   8.8366   8.8366   9.7727   9.7727
    13.9429  13.9429  14.5120  14.5120  14.8303  14.8304

          k = 0.6505 0.3756-0.2003 (  8377 PWs)   bands (ev):

   -14.9426 -14.9426 -14.9304 -14.9304 -14.8915 -14.8915 -14.8825 -14.8825
   -12.0128 -12.0128 -11.9795 -11.9795 -11.9456 -11.9456 -11.8920 -11.8920
   -11.8808 -11.8808 -11.8323 -11.8323  -1.5298  -1.5298  -0.5326  -0.5326
     4.8839   4.8839   6.2156   6.2156   7.5058   7.5058  11.3544  11.3544
    12.8723  12.8723  13.8509  13.8509  14.8700  14.8700

          k = 0.0000 0.0000 0.4507 (  8355 PWs)   bands (ev):

   -14.9347 -14.9347 -14.9242 -14.9242 -14.8955 -14.8955 -14.8952 -14.8952
   -11.9970 -11.9970 -11.9747 -11.9747 -11.9746 -11.9746 -11.8722 -11.8722
   -11.8662 -11.8662 -11.8600 -11.8600  -2.4574  -2.4574  -0.1595  -0.1595
     7.2236   7.2236   8.2638   8.2638   9.2657   9.2657   9.4389   9.4389
    10.4919  10.4919  10.8048  10.8048  15.4577  15.4577

          k = 0.0000 1.0516 0.1002 (  8339 PWs)   bands (ev):

   -14.9351 -14.9351 -14.9234 -14.9234 -14.8973 -14.8973 -14.8922 -14.8922
   -11.9964 -11.9964 -11.9788 -11.9788 -11.9565 -11.9565 -11.8881 -11.8881
   -11.8647 -11.8647 -11.8612 -11.8612  -2.1918  -2.1918  -0.3925  -0.3925
     6.5267   6.5267   7.7589   7.7589   8.9519   8.9519   9.7449   9.7449
    10.5562  10.5562  12.1536  12.1536  15.5748  15.5749

          k = 0.0000 0.9014 0.1502 (  8351 PWs)   bands (ev):

   -14.9367 -14.9367 -14.9291 -14.9291 -14.8922 -14.8922 -14.8889 -14.8889
   -11.9998 -11.9998 -11.9842 -11.9842 -11.9460 -11.9460 -11.8930 -11.8930
   -11.8702 -11.8702 -11.8519 -11.8519  -1.7973  -1.7973  -0.5555  -0.5555
     5.4750   5.4750   6.9056   6.9056   8.1653   8.1653  10.4868  10.4868
    11.8685  11.8685  13.7863  13.7863  15.1868  15.1868

          k = 0.9107 0.5258-0.2504 (  8335 PWs)   bands (ev):

   -14.9346 -14.9346 -14.9228 -14.9228 -14.8976 -14.8976 -14.8925 -14.8925
   -11.9966 -11.9966 -11.9717 -11.9717 -11.9578 -11.9578 -11.8862 -11.8862
   -11.8763 -11.8763 -11.8577 -11.8577  -2.0757  -2.0757  -0.5359  -0.5359
     6.7022   6.7022   7.3993   7.3993   8.6151   8.6151  10.1043  10.1043
    11.0227  11.0227  11.7374  11.7374  15.4511  15.4511

          k = 0.9107 0.3756-0.2003 (  8338 PWs)   bands (ev):

   -14.9367 -14.9367 -14.9274 -14.9274 -14.8940 -14.8940 -14.8890 -14.8890
   -12.0004 -12.0004 -11.9799 -11.9799 -11.9493 -11.9493 -11.8905 -11.8905
   -11.8731 -11.8731 -11.8520 -11.8520  -1.8497  -1.8497  -0.5659  -0.5659
     5.8870   5.8870   6.5202   6.5202   9.0189   9.0189   9.5897   9.5897
    12.4330  12.4330  13.0017  13.0017  15.3158  15.3159

          k = 0.0000 0.0000-0.6009 (  8340 PWs)   bands (ev):

   -14.9319 -14.9319 -14.9191 -14.9191 -14.8990 -14.8990 -14.8971 -14.8971
   -11.9896 -11.9896 -11.9662 -11.9662 -11.9623 -11.9623 -11.8855 -11.8855
   -11.8747 -11.8747 -11.8691 -11.8691  -2.1220  -2.1220  -0.6323  -0.6323
     7.5465   7.5465   7.9040   7.9040   9.4628   9.4628   9.5500   9.5500
    10.0976  10.0976  10.4076  10.4076  16.3617  16.3617

     the Fermi energy is     9.2465 ev

!    total energy              =    -327.59838392 Ry
     estimated scf accuracy    <          7.4E-09 Ry
     smearing contrib. (-TS)   =       0.00001998 Ry
     internal energy E=F+TS    =    -327.59840390 Ry

     The total energy is F=E-TS. E is the sum of the following terms:
     one-electron contribution =    -111.26154770 Ry
     hartree contribution      =      72.35027028 Ry
     xc contribution           =     -86.12188159 Ry
     ewald contribution        =    -202.56524489 Ry

     convergence has been achieved in   7 iterations

     Forces acting on atoms (cartesian axes, Ry/au):

     atom    1 type  1   force =    -0.00000000   -0.00000000    0.00910943
     atom    2 type  1   force =     0.00000000    0.00000000   -0.00910943

     Total force =     0.012883     Total SCF correction =     0.000158


     Computing stress (Cartesian axis) and pressure

          total   stress  (Ry/bohr**3)                   (kbar)     P=        5.89
   0.00004295  -0.00000000   0.00000000            6.32       -0.00        0.00
  -0.00000000   0.00004295   0.00000000           -0.00        6.32        0.00
  -0.00000000   0.00000000   0.00003429           -0.00        0.00        5.04


     Writing output data file /work/k0508/k050801/Bi/scf/Bi.save/
 
     init_run     :      1.83s CPU      2.02s WALL (       1 calls)
     electrons    :     45.38s CPU     46.74s WALL (       1 calls)
     forces       :      0.61s CPU      0.61s WALL (       1 calls)
     stress       :      1.35s CPU      1.36s WALL (       1 calls)

     Called by init_run:
     wfcinit      :      1.76s CPU      1.92s WALL (       1 calls)
     potinit      :      0.02s CPU      0.02s WALL (       1 calls)
     hinit0       :      0.02s CPU      0.05s WALL (       1 calls)

     Called by electrons:
     c_bands      :     38.63s CPU     39.76s WALL (       8 calls)
     sum_band     :      6.67s CPU      6.86s WALL (       8 calls)
     v_of_rho     :      0.04s CPU      0.04s WALL (       8 calls)
     mix_rho      :      0.02s CPU      0.03s WALL (       8 calls)

     Called by c_bands:
     init_us_2    :      0.23s CPU      0.25s WALL (    1235 calls)
     cegterg      :     35.96s CPU     36.97s WALL (     520 calls)

     Called by *egterg:
     cdiaghg      :      2.65s CPU      2.76s WALL (    1859 calls)
     h_psi        :     32.19s CPU     33.22s WALL (    1989 calls)
     g_psi        :      0.07s CPU      0.07s WALL (    1404 calls)

     Called by h_psi:
     h_psi:calbec :      0.89s CPU      0.92s WALL (    1989 calls)
     vloc_psi     :     29.99s CPU     30.97s WALL (    1989 calls)
     add_vuspsi   :      1.17s CPU      1.19s WALL (    1989 calls)

     General routines
     calbec       :      1.05s CPU      1.08s WALL (    2314 calls)
     fft          :      0.03s CPU      0.05s WALL (     129 calls)
     ffts         :      0.01s CPU      0.01s WALL (      32 calls)
     fftw         :     32.82s CPU     33.88s WALL (  237952 calls)
 
     Parallel routines
     fft_scatt_xy :      2.97s CPU      3.07s WALL (  238113 calls)
     fft_scatt_yz :     15.04s CPU     15.52s WALL (  238113 calls)
 
     PWSCF        :     49.91s CPU     52.70s WALL

 
   This run was terminated on:  21: 2:49  29Nov2020            

=------------------------------------------------------------------------------=
   JOB DONE.
=------------------------------------------------------------------------------=
